Title: * sw ring-oscillators
Date: Fri Aug  2 16:01:51  2024
Plotname: Transient Analysis
Flags: real
No. Variables: 23
No. Points: 7488
Variables:
	0	time	time
	1	v(n001)	voltage
	2	v(n002)	voltage
	3	v(n003)	voltage
	4	v(n004)	voltage
	5	v(n005)	voltage
	6	v(n006)	voltage
	7	v(n007)	voltage
	8	v(n008)	voltage
	9	v(n009)	voltage
	10	v(n010)	voltage
	11	v(n011)	voltage
	12	v(n012)	voltage
	13	v(n013)	voltage
	14	v(n014)	voltage
	15	v(n015)	voltage
	16	v(n016)	voltage
	17	v(osc_out)	voltage
	18	speedcheck	time
	19	v(vdd)	voltage
	20	i(vdd)	current
	21	v(vdd2)	voltage
	22	i(vmeasure)	current
Values:
 0	5.352280146491764e-11
	2.999999997000001e+00
	2.999998902714367e-09
	2.999999997000001e+00
	2.999998902714367e-09
	2.999999997000001e+00
	2.999998902714367e-09
	2.999999997000001e+00
	2.999998902714367e-09
	2.999999997000001e+00
	2.999998902714367e-09
	2.999999997000001e+00
	2.999998902714367e-09
	2.999999997000001e+00
	2.999998902714367e-09
	2.999999997000001e+00
	2.999998902714367e-09
	8.909889929635945e-01
	1.290000000000000e-04
	3.000000000000000e+00
	-1.054505551962929e-03
	3.000000000000000e+00
	1.054505551962929e-03

 1	5.970897266909548e-11
	2.999999997000002e+00
	2.999998751802953e-09
	2.999999997000002e+00
	2.999998751802953e-09
	2.999999997000002e+00
	2.999998751802953e-09
	2.999999997000002e+00
	2.999998751802953e-09
	2.999999997000002e+00
	2.999998751802953e-09
	2.999999997000002e+00
	2.999998751802953e-09
	2.999999997000002e+00
	2.999998751802953e-09
	2.999999997000002e+00
	2.999998751802953e-09
	9.552450122428469e-01
	1.470000000000000e-04
	3.000000000000000e+00
	-1.022377542356116e-03
	3.000000000000000e+00
	1.022377542356116e-03

 2	6.641284759376521e-11
	2.999999997000002e+00
	2.999998840929400e-09
	2.999999997000002e+00
	2.999998840929400e-09
	2.999999997000002e+00
	2.999998840929400e-09
	2.999999997000002e+00
	2.999998840929400e-09
	2.999999997000002e+00
	2.999998840929400e-09
	2.999999997000002e+00
	2.999998840929400e-09
	2.999999997000002e+00
	2.999998840929400e-09
	2.999999997000002e+00
	2.999998840929400e-09
	1.022671575046620e+00
	1.590000000000000e-04
	3.000000000000000e+00
	-9.886642609872424e-04
	3.000000000000000e+00
	9.886642609872424e-04

 3	7.003521449040764e-11
	2.999999997000002e+00
	2.999998856444576e-09
	2.999999997000002e+00
	2.999998856444576e-09
	2.999999997000002e+00
	2.999998856444576e-09
	2.999999997000002e+00
	2.999998856444576e-09
	2.999999997000002e+00
	2.999998856444576e-09
	2.999999997000002e+00
	2.999998856444576e-09
	2.999999997000002e+00
	2.999998856444576e-09
	2.999999997000002e+00
	2.999998856444576e-09
	1.058169705975236e+00
	1.780000000000000e-04
	3.000000000000000e+00
	-9.709151955422379e-04
	3.000000000000000e+00
	9.709151955422379e-04

 4	7.320138709133529e-11
	2.968297298462760e+00
	2.999998845541762e-09
	2.999999997000002e+00
	2.999998845541762e-09
	2.999999997000002e+00
	2.999998845541762e-09
	2.999999997000002e+00
	2.999998845541762e-09
	2.999999997000002e+00
	2.999998845541762e-09
	2.999999997000002e+00
	2.999998845541762e-09
	2.999999997000002e+00
	2.999998845541762e-09
	2.999999997000002e+00
	2.999998845541762e-09
	1.088672446615544e+00
	1.920000000000000e-04
	3.000000000000000e+00
	-2.455663822236560e-03
	3.000000000000000e+00
	2.455663822236560e-03

 5	7.621814300054686e-11
	2.929410625188801e+00
	2.999998980024643e-09
	2.999999997000002e+00
	2.999998980024643e-09
	2.999999997000002e+00
	2.999998980024643e-09
	2.999999997000002e+00
	2.999998980024643e-09
	2.999999997000002e+00
	2.999998980024643e-09
	2.999999997000002e+00
	2.999998980024643e-09
	2.999999997000002e+00
	2.999998980024643e-09
	2.999999997000002e+00
	2.999998980024643e-09
	1.117288869568932e+00
	1.990000000000000e-04
	3.000000000000000e+00
	-2.441355610773313e-03
	3.000000000000000e+00
	2.441355610773313e-03

 6	7.940261312974763e-11
	2.886315037984881e+00
	2.999998939070439e-09
	2.999999997000001e+00
	2.999998939070439e-09
	2.999999997000001e+00
	2.999998939070439e-09
	2.999999997000001e+00
	2.999998939070439e-09
	2.999999997000001e+00
	2.999998939070439e-09
	2.999999997000001e+00
	2.999998939070439e-09
	2.999999997000001e+00
	2.999998939070439e-09
	2.999999997000001e+00
	2.999998939070439e-09
	1.147031250226684e+00
	2.060000000000000e-04
	3.000000000000000e+00
	-2.426484420461270e-03
	3.000000000000000e+00
	2.426484420461270e-03

 7	8.479925317939725e-11
	2.814565506186957e+00
	2.999998964445175e-09
	2.999999997000001e+00
	2.999998964445175e-09
	2.999999997000001e+00
	2.999998964445175e-09
	2.999999997000001e+00
	2.999998964445175e-09
	2.999999997000001e+00
	2.999998964445175e-09
	2.999999997000001e+00
	2.999998964445175e-09
	2.999999997000001e+00
	2.999998964445175e-09
	2.999999997000001e+00
	2.999998964445175e-09
	1.196369199132873e+00
	2.130000000000000e-04
	3.000000000000000e+00
	-2.401815446031380e-03
	3.000000000000000e+00
	2.401815446031380e-03

 8	9.457435850854047e-11
	2.692735102282119e+00
	2.999998598404789e-09
	2.999999997000001e+00
	2.999998598404789e-09
	2.999999997000001e+00
	2.999998598404789e-09
	2.999999997000001e+00
	2.999998598404789e-09
	2.999999997000001e+00
	2.999998598404789e-09
	2.999999997000001e+00
	2.999998598404789e-09
	2.999999997000001e+00
	2.999998598404789e-09
	2.999999997000001e+00
	2.999998598404789e-09
	1.282439900440462e+00
	2.190000000000000e-04
	3.000000000000000e+00
	-2.358780095420201e-03
	3.000000000000000e+00
	2.358780095420201e-03

 9	1.141245691668269e-10
	2.480282413076675e+00
	2.999998267366114e-09
	2.999999997000001e+00
	2.999998267366114e-09
	2.999999997000001e+00
	2.999998267366114e-09
	2.999999997000001e+00
	2.999998267366114e-09
	2.999999997000001e+00
	2.999998267366114e-09
	2.999999997000001e+00
	2.999998267366114e-09
	2.999999997000001e+00
	2.999998267366114e-09
	2.999999997000001e+00
	2.999998267366114e-09
	1.442636797446099e+00
	2.260000000000000e-04
	3.000000000000000e+00
	-2.278681646998433e-03
	3.000000000000000e+00
	2.278681646998433e-03

 10	1.433653568410334e-10
	2.228088821243700e+00
	2.999998335825417e-09
	2.999999997000001e+00
	2.999998335825417e-09
	2.999999997000001e+00
	2.999998335825417e-09
	2.999999997000001e+00
	2.999998335825417e-09
	2.999999997000001e+00
	2.999998335825417e-09
	2.999999997000001e+00
	2.999998335825417e-09
	2.999999997000001e+00
	2.999998335825417e-09
	2.999999997000001e+00
	2.999998335825417e-09
	1.655347131688514e+00
	2.390000000000000e-04
	3.000000000000000e+00
	-2.172326479983692e-03
	3.000000000000000e+00
	2.172326479983692e-03

 11	1.643245005259736e-10
	2.087917327032518e+00
	2.999998790901030e-09
	2.999999997000001e+00
	2.999998790901030e-09
	2.999999997000001e+00
	2.999998790901030e-09
	2.999999997000001e+00
	2.999998790901030e-09
	2.999999997000001e+00
	2.999998790901030e-09
	2.999999997000001e+00
	2.999998790901030e-09
	2.999999997000001e+00
	2.999998790901030e-09
	2.999999997000001e+00
	2.999998790901030e-09
	1.789728819431254e+00
	2.510000000000000e-04
	3.000000000000000e+00
	-2.105135636179319e-03
	3.000000000000000e+00
	2.105135636179319e-03

 12	1.794326283448816e-10
	2.004381886953984e+00
	2.999999119116091e-09
	2.999999997000001e+00
	2.999999119116091e-09
	2.999999997000001e+00
	2.999999119116091e-09
	2.999999997000001e+00
	2.999999119116091e-09
	2.999999997000001e+00
	2.999999119116091e-09
	2.999999997000001e+00
	2.999999119116091e-09
	2.999999997000001e+00
	2.999999119116091e-09
	2.999999997000001e+00
	2.999999119116091e-09
	1.878057697068806e+00
	2.630000000000000e-04
	3.000000000000000e+00
	-2.060971197404733e-03
	3.000000000000000e+00
	2.060971197404733e-03

 13	1.867708685457224e-10
	1.968477249226694e+00
	2.999999094932186e-09
	2.999999997000001e+00
	2.999999094932186e-09
	2.999999997000001e+00
	2.999999094932186e-09
	2.999999997000001e+00
	2.999999094932186e-09
	2.999999997000001e+00
	2.999999094932186e-09
	2.999999997000001e+00
	2.999999094932186e-09
	2.999999997000001e+00
	2.999999094932186e-09
	2.999999997000001e+00
	2.999999094932186e-09
	1.918531952800659e+00
	2.820000000000000e-04
	3.000000000000000e+00
	-2.040734069558722e-03
	3.000000000000000e+00
	2.040734069558722e-03

 14	1.988934713721532e-10
	1.914732151846748e+00
	2.999999321919379e-09
	2.999999997000002e+00
	2.999999321919379e-09
	2.999999997000002e+00
	2.999999321919379e-09
	2.999999997000002e+00
	2.999999321919379e-09
	2.999999997000002e+00
	2.999999321919379e-09
	2.999999997000002e+00
	2.999999321919379e-09
	2.999999997000002e+00
	2.999999321919379e-09
	2.999999997000002e+00
	2.999999321919379e-09
	1.982208194923653e+00
	2.940000000000000e-04
	3.000000000000000e+00
	-2.008895948529557e-03
	3.000000000000000e+00
	2.008895948529557e-03

 15	2.035971215457228e-10
	1.895632666744237e+00
	5.318549799454801e-02
	2.999999997000002e+00
	2.999998937339378e-09
	2.999999997000002e+00
	2.999998937339378e-09
	2.999999997000002e+00
	2.999998937339378e-09
	2.999999997000002e+00
	2.999998937339378e-09
	2.999999997000002e+00
	2.999998937339378e-09
	2.999999997000002e+00
	2.999998937339378e-09
	2.999999997000002e+00
	2.999998937339378e-09
	2.005878069425444e+00
	3.130000000000000e-04
	3.000000000000000e+00
	-3.497061008289955e-03
	3.000000000000000e+00
	3.497061008289955e-03

 16	2.085044059340668e-10
	1.876661244990633e+00
	1.168729233191390e-01
	2.999999997000002e+00
	2.999998895278714e-09
	2.999999997000002e+00
	2.999998895278714e-09
	2.999999997000002e+00
	2.999998895278714e-09
	2.999999997000002e+00
	2.999998895278714e-09
	2.999999997000002e+00
	2.999998895278714e-09
	2.999999997000002e+00
	2.999998895278714e-09
	2.999999997000002e+00
	2.999998895278714e-09
	2.029980982175962e+00
	3.200000000000000e-04
	3.000000000000000e+00
	-3.485009551926738e-03
	3.000000000000000e+00
	3.485009551926738e-03

 17	2.142254548619989e-10
	1.855693186425523e+00
	1.915182438719076e-01
	2.999999997000003e+00
	2.999998887493503e-09
	2.999999997000003e+00
	2.999998887493503e-09
	2.999999997000003e+00
	2.999998887493503e-09
	2.999999997000003e+00
	2.999998887493503e-09
	2.999999997000003e+00
	2.999998887493503e-09
	2.999999997000003e+00
	2.999998887493503e-09
	2.999999997000003e+00
	2.999998887493503e-09
	2.057343049303488e+00
	3.270000000000000e-04
	3.000000000000000e+00
	-3.471328518376150e-03
	3.000000000000000e+00
	3.471328518376150e-03

 18	2.240551789284231e-10
	1.787900095131792e+00
	3.126979553151009e-01
	2.999999997000003e+00
	2.999998846762075e-09
	2.999999997000003e+00
	2.999998846762075e-09
	2.999999997000003e+00
	2.999998846762075e-09
	2.999999997000003e+00
	2.999998846762075e-09
	2.999999997000003e+00
	2.999998846762075e-09
	2.999999997000003e+00
	2.999998846762075e-09
	2.999999997000003e+00
	2.999998846762075e-09
	2.102575492412679e+00
	3.350000000000000e-04
	3.000000000000000e+00
	-2.842662345016247e-03
	3.000000000000000e+00
	2.842662345016247e-03

 19	2.427768458261161e-10
	1.643828805346360e+00
	5.154297820733807e-01
	2.999999997000003e+00
	2.999999161375536e-09
	2.999999997000003e+00
	2.999999161375536e-09
	2.999999997000003e+00
	2.999999161375536e-09
	2.999999997000003e+00
	2.999999161375536e-09
	2.999999997000003e+00
	2.999999161375536e-09
	2.999999997000003e+00
	2.999999161375536e-09
	2.999999997000003e+00
	2.999999161375536e-09
	2.182889983134869e+00
	3.420000000000000e-04
	3.000000000000000e+00
	-2.730469454875321e-03
	3.000000000000000e+00
	2.730469454875321e-03

 20	2.636298658323011e-10
	1.486918089760771e+00
	7.022963540272898e-01
	2.999999997000003e+00
	2.999999230558499e-09
	2.999999997000003e+00
	2.999999230558499e-09
	2.999999997000003e+00
	2.999999230558499e-09
	2.999999997000003e+00
	2.999999230558499e-09
	2.999999997000003e+00
	2.999999230558499e-09
	2.999999997000003e+00
	2.999999230558499e-09
	2.999999997000003e+00
	2.999999230558499e-09
	2.264017039439144e+00
	3.490000000000000e-04
	3.000000000000000e+00
	-2.611450569049427e-03
	3.000000000000000e+00
	2.611450569049427e-03

 21	2.859181700338220e-10
	1.331919474415657e+00
	8.638245735880593e-01
	2.999999997000003e+00
	2.999999204722364e-09
	2.999999997000003e+00
	2.999999204722364e-09
	2.999999997000003e+00
	2.999999204722364e-09
	2.999999997000003e+00
	2.999999204722364e-09
	2.999999997000003e+00
	2.999999204722364e-09
	2.999999997000003e+00
	2.999999204722364e-09
	2.999999997000003e+00
	2.999999204722364e-09
	2.341910769253990e+00
	3.610000000000000e-04
	3.000000000000000e+00
	-2.495004396586009e-03
	3.000000000000000e+00
	2.495004396586009e-03

 22	3.030894372504587e-10
	1.222573061598345e+00
	9.655080672615279e-01
	2.999999997000003e+00
	2.999999393581772e-09
	2.999999997000003e+00
	2.999999393581772e-09
	2.999999997000003e+00
	2.999999393581772e-09
	2.999999997000003e+00
	2.999999393581772e-09
	2.999999997000003e+00
	2.999999393581772e-09
	2.999999997000003e+00
	2.999999393581772e-09
	2.999999997000003e+00
	2.999999393581772e-09
	2.396226648398028e+00
	3.730000000000000e-04
	3.000000000000000e+00
	-2.413173250687087e-03
	3.000000000000000e+00
	2.413173250687087e-03

 23	3.154405029840541e-10
	1.149332125344464e+00
	1.028168424971393e+00
	2.999999997000003e+00
	2.999999409577211e-09
	2.999999997000003e+00
	2.999999409577211e-09
	2.999999997000003e+00
	2.999999409577211e-09
	2.999999997000003e+00
	2.999999409577211e-09
	2.999999997000003e+00
	2.999999409577211e-09
	2.999999997000003e+00
	2.999999409577211e-09
	2.999999997000003e+00
	2.999999409577211e-09
	2.432460994106775e+00
	3.850000000000000e-04
	3.000000000000000e+00
	-2.358435609760495e-03
	3.000000000000000e+00
	2.358435609760495e-03

 24	3.215543811587175e-10
	1.114714045914604e+00
	1.056264960303953e+00
	2.999999997000003e+00
	2.999999271244248e-09
	2.999999997000003e+00
	2.999999271244248e-09
	2.999999997000003e+00
	2.999999271244248e-09
	2.999999997000003e+00
	2.999999271244248e-09
	2.999999997000003e+00
	2.999999271244248e-09
	2.999999997000003e+00
	2.999999271244248e-09
	2.999999997000003e+00
	2.999999271244248e-09
	2.449563556315220e+00
	4.040000000000000e-04
	3.000000000000000e+00
	-2.332575288966028e-03
	3.000000000000000e+00
	2.332575288966028e-03

 25	3.255871303485913e-10
	1.092456716970678e+00
	1.073834100856722e+00
	2.999999997000004e+00
	2.999999007529085e-09
	2.999999997000004e+00
	2.999999007529085e-09
	2.999999997000004e+00
	2.999999007529085e-09
	2.999999997000004e+00
	2.999999007529085e-09
	2.999999997000004e+00
	2.999999007529085e-09
	2.999999997000004e+00
	2.999999007529085e-09
	2.999999997000004e+00
	2.999999007529085e-09
	2.460555600328749e+00
	4.230000000000000e-04
	3.000000000000000e+00
	-2.315950602503641e-03
	3.000000000000000e+00
	2.315950602503641e-03

 26	3.286326079332671e-10
	1.075945152113386e+00
	1.086627472315937e+00
	2.999999997000004e+00
	2.999999053755597e-09
	2.999999997000004e+00
	2.999999053755597e-09
	2.999999997000004e+00
	2.999999053755597e-09
	2.999999997000004e+00
	2.999999053755597e-09
	2.999999997000004e+00
	2.999999053755597e-09
	2.999999997000004e+00
	2.999999053755597e-09
	2.999999997000004e+00
	2.999999053755597e-09
	2.468709207112257e+00
	4.420000000000000e-04
	3.000000000000000e+00
	-2.303618016697109e-03
	3.000000000000000e+00
	2.303618016697109e-03

 27	3.313096382208499e-10
	1.061638146872429e+00
	1.097551551845663e+00
	2.973132568170030e+00
	2.999999196085556e-09
	2.999999997000004e+00
	2.999999196085556e-09
	2.999999997000004e+00
	2.999999196085556e-09
	2.999999997000004e+00
	2.999999196085556e-09
	2.999999997000004e+00
	2.999999196085556e-09
	2.999999997000004e+00
	2.999999196085556e-09
	2.999999997000004e+00
	2.999999196085556e-09
	2.475773962005813e+00
	4.560000000000000e-04
	3.000000000000000e+00
	-3.792932133640597e-03
	3.000000000000000e+00
	3.792932133640597e-03

 28	3.338679577246333e-10
	1.048143680847557e+00
	1.107719906633824e+00
	2.939958069064837e+00
	2.999999142092227e-09
	2.999999997000004e+00
	2.999999142092227e-09
	2.999999997000004e+00
	2.999999142092227e-09
	2.999999997000004e+00
	2.999999142092227e-09
	2.999999997000004e+00
	2.999999142092227e-09
	2.999999997000004e+00
	2.999999142092227e-09
	2.999999997000004e+00
	2.999999142092227e-09
	2.482437422856425e+00
	4.620000000000000e-04
	3.000000000000000e+00
	-3.782853170211570e-03
	3.000000000000000e+00
	3.782853170211570e-03

 29	3.367902074874833e-10
	1.032939315216273e+00
	1.119020587171562e+00
	2.900094277790235e+00
	2.999999631656047e-09
	2.999999997000003e+00
	2.999999631656047e-09
	2.999999997000003e+00
	2.999999631656047e-09
	2.999999997000003e+00
	2.999999631656047e-09
	2.999999997000003e+00
	2.999999631656047e-09
	2.999999997000003e+00
	2.999999631656047e-09
	2.999999997000003e+00
	2.999999631656047e-09
	2.489945195003505e+00
	4.690000000000000e-04
	3.000000000000000e+00
	-3.771497101335231e-03
	3.000000000000000e+00
	3.771497101335231e-03

 30	3.412767974362084e-10
	1.010022867188208e+00
	1.135743275966250e+00
	2.839577166566859e+00
	2.999999749858830e-09
	2.999999997000003e+00
	2.999999749858830e-09
	2.999999997000003e+00
	2.999999749858830e-09
	2.999999997000003e+00
	2.999999749858830e-09
	2.999999997000003e+00
	2.999999749858830e-09
	2.999999997000003e+00
	2.999999749858830e-09
	2.999999997000003e+00
	2.999999749858830e-09
	2.501261108549120e+00
	4.760000000000000e-04
	3.000000000000000e+00
	-3.754380920564293e-03
	3.000000000000000e+00
	3.754380920564293e-03

 31	3.501165122180771e-10
	9.663388515122252e-01
	1.166601160787101e+00
	2.726827718256207e+00
	2.999999834124537e-09
	2.999999997000003e+00
	2.999999834124537e-09
	2.999999997000003e+00
	2.999999834124537e-09
	2.999999997000003e+00
	2.999999834124537e-09
	2.999999997000003e+00
	2.999999834124537e-09
	2.999999997000003e+00
	2.999999834124537e-09
	2.999999997000003e+00
	2.999999834124537e-09
	2.522831831357263e+00
	4.830000000000000e-04
	3.000000000000000e+00
	-3.721753551355497e-03
	3.000000000000000e+00
	3.721753551355497e-03

 32	3.677959417818145e-10
	8.844803167045705e-01
	1.282386736694802e+00
	2.527621579599455e+00
	2.999999785467226e-09
	2.999999997000003e+00
	2.999999785467226e-09
	2.999999997000003e+00
	2.999999785467226e-09
	2.999999997000003e+00
	2.999999785467226e-09
	2.999999997000003e+00
	2.999999785467226e-09
	2.999999997000003e+00
	2.999999785467226e-09
	2.999999997000003e+00
	2.999999785467226e-09
	2.563252736893563e+00
	4.910000000000000e-04
	3.000000000000000e+00
	-3.019420463538799e-03
	3.000000000000000e+00
	3.019420463538799e-03

 33	3.908695095227720e-10
	7.878265086408204e-01
	1.451108848581285e+00
	2.313750873834493e+00
	3.000000145761321e-09
	2.999999997000003e+00
	3.000000145761321e-09
	2.999999997000003e+00
	3.000000145761321e-09
	2.999999997000003e+00
	3.000000145761321e-09
	2.999999997000003e+00
	3.000000145761321e-09
	2.999999997000003e+00
	3.000000145761321e-09
	2.999999997000003e+00
	3.000000145761321e-09
	2.610979393029254e+00
	4.980000000000000e-04
	3.000000000000000e+00
	-2.862869175652490e-03
	3.000000000000000e+00
	2.862869175652490e-03

 34	4.175801964108576e-10
	6.888799637823997e-01
	1.637718506292940e+00
	2.119590764494425e+00
	3.000000775846269e-09
	2.999999997000003e+00
	3.000000775846269e-09
	2.999999997000003e+00
	3.000000775846269e-09
	2.999999997000003e+00
	3.000000775846269e-09
	2.999999997000003e+00
	3.000000775846269e-09
	2.999999997000003e+00
	3.000000775846269e-09
	2.999999997000003e+00
	3.000000775846269e-09
	2.659838177403253e+00
	5.100000000000000e-04
	3.000000000000000e+00
	-2.695661682347514e-03
	3.000000000000000e+00
	2.695661682347514e-03

 35	4.344622474478973e-10
	6.329116721843020e-01
	1.746890666661172e+00
	2.021830590214469e+00
	3.000000833587585e-09
	2.999999997000002e+00
	3.000000833587585e-09
	2.999999997000002e+00
	3.000000833587585e-09
	2.999999997000002e+00
	3.000000833587585e-09
	2.999999997000002e+00
	3.000000833587585e-09
	2.999999997000002e+00
	3.000000833587585e-09
	2.999999997000002e+00
	3.000000833587585e-09
	2.687474742717361e+00
	5.230000000000000e-04
	3.000000000000000e+00
	-2.599273173803655e-03
	3.000000000000000e+00
	2.599273173803655e-03

 36	4.461767495498353e-10
	5.968268065200434e-01
	1.818017983554462e+00
	1.963591684998640e+00
	3.000000878989738e-09
	2.999999997000002e+00
	3.000000878989738e-09
	2.999999997000002e+00
	3.000000878989738e-09
	2.999999997000002e+00
	3.000000878989738e-09
	2.999999997000002e+00
	3.000000878989738e-09
	2.999999997000002e+00
	3.000000878989738e-09
	2.999999997000002e+00
	3.000000878989738e-09
	2.705293077233529e+00
	5.350000000000000e-04
	3.000000000000000e+00
	-2.536757915329188e-03
	3.000000000000000e+00
	2.536757915329188e-03

 37	4.520546438701829e-10
	5.795258597543110e-01
	1.852240135789621e+00
	1.937018975176435e+00
	3.000000848752938e-09
	2.999999997000002e+00
	3.000000848752938e-09
	2.999999997000002e+00
	3.000000848752938e-09
	2.999999997000002e+00
	3.000000848752938e-09
	2.999999997000002e+00
	3.000000848752938e-09
	2.999999997000002e+00
	3.000000848752938e-09
	2.999999997000002e+00
	3.000000848752938e-09
	2.713836106305209e+00
	5.540000000000000e-04
	3.000000000000000e+00
	-2.506724851321959e-03
	3.000000000000000e+00
	2.506724851321959e-03

 38	4.559928615852281e-10
	5.682216209546191e-01
	1.874620287961285e+00
	1.920113545610793e+00
	3.000000450312457e-09
	2.999999997000002e+00
	3.000000450312457e-09
	2.999999997000002e+00
	3.000000450312457e-09
	2.999999997000002e+00
	3.000000450312457e-09
	2.999999997000002e+00
	3.000000450312457e-09
	2.999999997000002e+00
	3.000000450312457e-09
	2.999999997000002e+00
	3.000000450312457e-09
	2.719418022830764e+00
	5.730000000000001e-04
	3.000000000000000e+00
	-2.487091697593757e-03
	3.000000000000000e+00
	2.487091697593757e-03

 39	4.593055872786360e-10
	5.588855298569766e-01
	1.893108546558154e+00
	1.906412792280735e+00
	3.334969142504768e-02
	2.999999997000002e+00
	2.999999948274777e-09
	2.999999997000002e+00
	2.999999948274777e-09
	2.999999997000002e+00
	2.999999948274777e-09
	2.999999997000002e+00
	2.999999948274777e-09
	2.999999997000002e+00
	2.999999948274777e-09
	2.999999997000002e+00
	2.999999948274777e-09
	2.724028088320300e+00
	5.860000000000000e-04
	3.000000000000000e+00
	-3.970874487018106e-03
	3.000000000000000e+00
	3.970874487018106e-03

 40	4.623041958949258e-10
	5.505676691873365e-01
	1.909581717757223e+00
	1.894401021539608e+00
	7.209898440641657e-02
	2.999999997000002e+00
	2.999999676059425e-09
	2.999999997000002e+00
	2.999999676059425e-09
	2.999999997000002e+00
	2.999999676059425e-09
	2.999999997000002e+00
	2.999999676059425e-09
	2.999999997000002e+00
	2.999999676059425e-09
	2.999999997000002e+00
	2.999999676059425e-09
	2.728135362126588e+00
	5.930000000000000e-04
	3.000000000000000e+00
	-3.956425334194769e-03
	3.000000000000000e+00
	3.956425334194769e-03

 41	4.656958626345618e-10
	5.413087569441698e-01
	1.927919065339498e+00
	1.881243148111305e+00
	1.179180991787783e-01
	2.999999997000002e+00
	2.999999757066793e-09
	2.999999997000002e+00
	2.999999757066793e-09
	2.999999997000002e+00
	2.999999757066793e-09
	2.999999997000002e+00
	2.999999757066793e-09
	2.999999997000002e+00
	2.999999757066793e-09
	2.999999997000002e+00
	2.999999757066793e-09
	2.732707317493601e+00
	5.999999999999999e-04
	3.000000000000000e+00
	-3.940341226614352e-03
	3.000000000000000e+00
	3.940341226614352e-03

 42	4.711246324022272e-10
	5.268108451060011e-01
	1.956632535899306e+00
	1.861085084471228e+00
	1.898854292721010e-01
	2.999999997000002e+00
	3.000000054187867e-09
	2.999999997000002e+00
	3.000000054187867e-09
	2.999999997000002e+00
	3.000000054187867e-09
	2.999999997000002e+00
	3.000000054187867e-09
	2.999999997000002e+00
	3.000000054187867e-09
	2.999999997000002e+00
	3.000000054187867e-09
	2.739866236824288e+00
	6.070000000000000e-04
	3.000000000000000e+00
	-3.915156075775805e-03
	3.000000000000000e+00
	3.915156075775805e-03

 43	4.815207298603370e-10
	5.001139611091761e-01
	2.009506542252053e+00
	1.825365621159091e+00
	3.186483010513033e-01
	2.999999997000002e+00
	2.999999741800120e-09
	2.999999997000002e+00
	2.999999741800120e-09
	2.999999997000002e+00
	2.999999741800120e-09
	2.999999997000002e+00
	2.999999741800120e-09
	2.999999997000002e+00
	2.999999741800120e-09
	2.999999997000002e+00
	2.999999741800120e-09
	2.753048882783724e+00
	6.130000000000000e-04
	3.000000000000000e+00
	-3.868779307667235e-03
	3.000000000000000e+00
	3.868779307667235e-03

 44	5.023129247765568e-10
	4.506466548149700e-01
	2.107478208377933e+00
	1.691292971235906e+00
	5.412639583782869e-01
	2.999999997000002e+00
	2.999999276450626e-09
	2.999999997000002e+00
	2.999999276450626e-09
	2.999999997000002e+00
	2.999999276450626e-09
	2.999999997000002e+00
	2.999999276450626e-09
	2.999999997000002e+00
	2.999999276450626e-09
	2.999999997000002e+00
	2.999999276450626e-09
	2.777475328413883e+00
	6.220000000000000e-04
	3.000000000000000e+00
	-3.128493085001086e-03
	3.000000000000000e+00
	3.128493085001086e-03

 45	5.275362572000264e-10
	3.970540708141482e-01
	2.213620195039159e+00
	1.510644065439429e+00
	7.578054260786882e-01
	2.999999997000001e+00
	2.999998950600543e-09
	2.999999997000001e+00
	2.999998950600543e-09
	2.999999997000001e+00
	2.999998950600543e-09
	2.999999997000001e+00
	2.999998950600543e-09
	2.999999997000001e+00
	2.999998950600543e-09
	2.999999997000001e+00
	2.999998950600543e-09
	2.803938793626435e+00
	6.290000000000000e-04
	3.000000000000000e+00
	-2.945069614348993e-03
	3.000000000000000e+00
	2.945069614348993e-03

 46	5.485967398749163e-10
	3.572085321813586e-01
	2.292535700332884e+00
	1.364708006233075e+00
	9.010425615107125e-01
	2.999999997000001e+00
	2.999999399891162e-09
	2.999999997000001e+00
	2.999999399891162e-09
	2.999999997000001e+00
	2.999999399891162e-09
	2.999999997000001e+00
	2.999999399891162e-09
	2.999999997000001e+00
	2.999999399891162e-09
	2.999999997000001e+00
	2.999999399891162e-09
	2.823614109626647e+00
	6.410000000000000e-04
	3.000000000000000e+00
	-2.802883404924791e-03
	3.000000000000000e+00
	2.802883404924791e-03

 47	5.641769791151782e-10
	3.303569138860312e-01
	2.345716290328254e+00
	1.263438927079232e+00
	9.885664764013345e-01
	2.999999997000001e+00
	2.999999295799885e-09
	2.999999997000001e+00
	2.999999295799885e-09
	2.999999997000001e+00
	2.999999295799885e-09
	2.999999997000001e+00
	2.999999295799885e-09
	2.999999997000001e+00
	2.999999295799885e-09
	2.999999997000001e+00
	2.999999295799885e-09
	2.836873161786701e+00
	6.530000000000000e-04
	3.000000000000000e+00
	-2.705603235219622e-03
	3.000000000000000e+00
	2.705603235219622e-03

 48	5.752610281336051e-10
	3.125137498338318e-01
	2.381055315926011e+00
	1.195484609734957e+00
	1.042657038374884e+00
	2.999999997000001e+00
	2.999999412304698e-09
	2.999999997000001e+00
	2.999999412304698e-09
	2.999999997000001e+00
	2.999999412304698e-09
	2.999999997000001e+00
	2.999999412304698e-09
	2.999999997000001e+00
	2.999999412304698e-09
	2.999999997000001e+00
	2.999999412304698e-09
	2.845683932156906e+00
	6.650000000000000e-04
	3.000000000000000e+00
	-2.640629596602682e-03
	3.000000000000000e+00
	2.640629596602682e-03

 49	5.808157040596924e-10
	3.039468958062174e-01
	2.398022277427591e+00
	1.162750298135332e+00
	1.067454545181806e+00
	2.999999997000001e+00
	2.999999439653384e-09
	2.999999997000001e+00
	2.999999439653384e-09
	2.999999997000001e+00
	2.999999439653384e-09
	2.999999997000001e+00
	2.999999439653384e-09
	2.999999997000001e+00
	2.999999439653384e-09
	2.999999997000001e+00
	2.999999439653384e-09
	2.849914156315108e+00
	6.840000000000000e-04
	3.000000000000000e+00
	-2.609380420988891e-03
	3.000000000000000e+00
	2.609380420988891e-03

 50	5.846416726366510e-10
	2.981857347612042e-01
	2.409432463435683e+00
	1.140718475051589e+00
	1.083715540504157e+00
	2.999999997000001e+00
	2.999999184844687e-09
	2.999999997000001e+00
	2.999999184844687e-09
	2.999999997000001e+00
	2.999999184844687e-09
	2.999999997000001e+00
	2.999999184844687e-09
	2.999999997000001e+00
	2.999999184844687e-09
	2.999999997000001e+00
	2.999999184844687e-09
	2.852758958217107e+00
	7.030000000000000e-04
	3.000000000000000e+00
	-2.588356434990752e-03
	3.000000000000000e+00
	2.588356434990752e-03

 51	5.878453691586004e-10
	2.934464810075376e-01
	2.418818725422630e+00
	1.122590306654079e+00
	1.096850543102300e+00
	2.967699818363116e+00
	2.999999166947756e-09
	2.999999997000000e+00
	2.999999166947756e-09
	2.999999997000000e+00
	2.999999166947756e-09
	2.999999997000000e+00
	2.999999166947756e-09
	2.999999997000000e+00
	2.999999166947756e-09
	2.999999997000000e+00
	2.999999166947756e-09
	2.855099152838841e+00
	7.170000000000000e-04
	3.000000000000000e+00
	-4.071059492628953e-03
	3.000000000000000e+00
	4.071059492628953e-03

 52	5.907825816859293e-10
	2.891679366776752e-01
	2.427292535879218e+00
	1.106223171512806e+00
	1.108524999190464e+00
	2.929711749837321e+00
	2.999999113390208e-09
	2.999999997000000e+00
	2.999999113390208e-09
	2.999999997000000e+00
	2.999999113390208e-09
	2.999999997000000e+00
	2.999999113390208e-09
	2.999999997000000e+00
	2.999999113390208e-09
	2.999999997000000e+00
	2.999999113390208e-09
	2.857211853898971e+00
	7.230000000000000e-04
	3.000000000000000e+00
	-4.055443397149971e-03
	3.000000000000000e+00
	4.055443397149971e-03

 53	5.941022640806575e-10
	2.844073736874637e-01
	2.436721001576721e+00
	1.088011686286887e+00
	1.121312333234943e+00
	2.884793440309748e+00
	2.999999174556691e-09
	2.999999997000001e+00
	2.999999174556691e-09
	2.999999997000001e+00
	2.999999174556691e-09
	2.999999997000001e+00
	2.999999174556691e-09
	2.999999997000001e+00
	2.999999174556691e-09
	2.999999997000001e+00
	2.999999174556691e-09
	2.859562570801923e+00
	7.300000000000000e-04
	3.000000000000000e+00
	-4.038067781758692e-03
	3.000000000000000e+00
	4.038067781758692e-03

 54	5.993978011101090e-10
	2.769746080957802e-01
	2.451441860341742e+00
	1.059577488392969e+00
	1.140856145112253e+00
	2.814408654004767e+00
	2.999998846409535e-09
	2.999999997000002e+00
	2.999998846409535e-09
	2.999999997000002e+00
	2.999998846409535e-09
	2.999999997000002e+00
	2.999998846409535e-09
	2.999999997000002e+00
	2.999998846409535e-09
	2.999999997000002e+00
	2.999998846409535e-09
	2.863232793787728e+00
	7.370000000000000e-04
	3.000000000000000e+00
	-4.010938759168484e-03
	3.000000000000000e+00
	4.010938759168484e-03

 55	6.095678291695764e-10