Title: * C:\Users\georgtree1\AppData\Local\LTspice\examples\Educational\2ndOrderAllpass.asc
Date: Sun Jan 26 14:34:01 2025
Plotname: AC Analysis
Flags: complex forward log
No. Variables: 14
No. Points:          203
Offset:    0.0000000000000000e+00
Command: Linear Technology Corporation LTspice
Variables:
	0	frequency	frequency
	1	V(n002)	voltage
	2	V(1)	voltage
	3	V(n003)	voltage
	4	V(2)	voltage
	5	I(L2)	device_current
	6	I(R1)	device_current
	7	I(R2)	device_current
	8	I(R3)	device_current
	9	I(G1)	device_current
	10	I(G2)	device_current
	11	I(G3)	device_current
	12	I(G4)	device_current
	13	I(V1)	device_current
Values:
0		1.000000000000000e+02,0.000000000000000e+00
	4.079751314005124e-02,2.827129131138200e-01
	1.000000000000000e+00,0.000000000000000e+00
	9.592024868599488e-01,-2.827129131138200e-01
	9.592023909397098e+01,-2.827128848425316e+01
	2.000000000000000e-03,-5.421010862427522e-20
	9.592024868599488e-04,-2.827129131138200e-04
	9.592023909397097e+02,-2.827128848425315e+02
	9.592023909397097e-05,-2.827128848425315e-05
	2.000000000000000e-03,0.000000000000000e+00
	1.000000000000000e-03,0.000000000000000e+00
	4.079751314005125e-05,2.827129131138200e-04
	9.592024868599487e+02,-2.827129131138200e+02
	0.000000000000000e+00,0.000000000000000e+00
1		1.023059729842509e+02,0.000000000000000e+00
	4.269945315160260e-02,2.890876426926767e-01
	1.000000000000000e+00,0.000000000000000e+00
	9.573005468483974e-01,-2.890876426926767e-01
	9.573004511183524e+01,-2.890876137839154e+01
	2.000000000000000e-03,5.421010862427522e-20
	9.573005468483974e-04,-2.890876426926767e-04
	9.573004511183524e+02,-2.890876137839153e+02
	9.573004511183524e-05,-2.890876137839154e-05
	2.000000000000000e-03,0.000000000000000e+00
	1.000000000000000e-03,0.000000000000000e+00
	4.269945315160261e-05,2.890876426926767e-04
	9.573005468483974e+02,-2.890876426926768e+02
	0.000000000000000e+00,0.000000000000000e+00
2		1.046651210825427e+02,0.000000000000000e+00
	4.468998373307127e-02,2.955990106467741e-01
	1.000000000000000e+00,0.000000000000000e+00
	9.553100162669287e-01,-2.955990106467741e-01
	9.553099207359367e+01,-2.955989810868760e+01
	2.000000000000000e-03,0.000000000000000e+00
	9.553100162669287e-04,-2.955990106467741e-04
	9.553099207359367e+02,-2.955989810868760e+02
	9.553099207359366e-05,-2.955989810868760e-05
	2.000000000000000e-03,0.000000000000000e+00
	1.000000000000000e-03,0.000000000000000e+00
	4.468998373307127e-05,2.955990106467741e-04
	9.553100162669286e+02,-2.955990106467740e+02
	0.000000000000000e+00,0.000000000000000e+00
3		1.070786704986396e+02,0.000000000000000e+00
	4.677322160250554e-02,3.022494191066777e-01
	1.000000000000000e+00,0.000000000000000e+00
	9.532267783974945e-01,-3.022494191066777e-01
	9.532266830748262e+01,-3.022493888817388e+01
	2.000000000000000e-03,-5.421010862427522e-20
	9.532267783974945e-04,-3.022494191066777e-04
	9.532266830748262e+02,-3.022493888817388e+02
	9.532266830748262e-05,-3.022493888817388e-05
	2.000000000000000e-03,0.000000000000000e+00
	1.000000000000000e-03,0.000000000000000e+00
	4.677322160250554e-05,3.022494191066777e-04
	9.532267783974945e+02,-3.022494191066777e+02
	0.000000000000000e+00,0.000000000000000e+00
4		1.095478757122332e+02,0.000000000000000e+00
	4.895347354275022e-02,3.090412707962454e-01
	1.000000000000000e+00,0.000000000000000e+00
	9.510465264572497e-01,-3.090412707962454e-01
	9.510464313526067e+01,-3.090412398921215e+01
	2.000000000000000e-03,0.000000000000000e+00
	9.510465264572497e-04,-3.090412707962454e-04
	9.510464313526068e+02,-3.090412398921214e+02
	9.510464313526067e-05,-3.090412398921214e-05
	2.000000000000000e-03,0.000000000000000e+00
	1.000000000000000e-03,0.000000000000000e+00
	4.895347354275022e-05,3.090412707962454e-04
	9.510465264572498e+02,-3.090412707962454e+02
	0.000000000000000e+00,0.000000000000000e+00
5		1.120740201309780e+02,0.000000000000000e+00
	5.123524501377639e-02,3.159769649577398e-01
	1.000000000000000e+00,0.000000000000000e+00
	9.487647549862236e-01,-3.159769649577398e-01
	9.487646601097576e+01,-3.159769333600465e+01
	2.000000000000000e-03,-1.084202172485504e-19
	9.487647549862237e-04,-3.159769649577398e-04
	9.487646601097576e+02,-3.159769333600465e+02
	9.487646601097576e-05,-3.159769333600465e-05
	2.000000000000000e-03,0.000000000000000e+00
	1.000000000000000e-03,0.000000000000000e+00
	5.123524501377639e-05,3.159769649577398e-04
	9.487647549862236e+02,-3.159769649577398e+02
	0.000000000000000e+00,0.000000000000000e+00
6		1.146584167575622e+02,0.000000000000000e+00
	5.362324913303038e-02,3.230588928696407e-01
	1.000000000000000e+00,0.000000000000000e+00
	9.463767508669696e-01,-3.230588928696407e-01
	9.463766562293040e+01,-3.230588605637546e+01
	2.000000000000000e-03,5.421010862427522e-20
	9.463767508669696e-04,-3.230588928696407e-04
	9.463766562293040e+02,-3.230588605637546e+02
	9.463766562293040e-05,-3.230588605637546e-05
	2.000000000000000e-03,0.000000000000000e+00
	1.000000000000000e-03,0.000000000000000e+00
	5.362324913303039e-05,3.230588928696407e-04
	9.463767508669696e+02,-3.230588928696407e+02
	0.000000000000000e+00,0.000000000000000e+00
7		1.173024088721614e+02,0.000000000000000e+00
	5.612241603637218e-02,3.302894329229442e-01
	1.000000000000000e+00,0.000000000000000e+00
	9.438775839636279e-01,-3.302894329229442e-01
	9.438774895758790e+01,-3.302893998940042e+01
	2.000000000000000e-03,0.000000000000000e+00
	9.438775839636279e-04,-3.302894329229442e-04
	9.438774895758791e+02,-3.302893998940042e+02
	9.438774895758790e-05,-3.302893998940042e-05
	2.000000000000000e-03,0.000000000000000e+00
	1.000000000000000e-03,0.000000000000000e+00
	5.612241603637218e-05,3.302894329229442e-04
	9.438775839636279e+02,-3.302894329229442e+02
	0.000000000000000e+00,0.000000000000000e+00
8		1.200073707306289e+02,0.000000000000000e+00
	5.873790263211928e-02,3.376709452189082e-01
	1.000000000000000e+00,0.000000000000000e+00
	9.412620973678807e-01,-3.376709452189082e-01
	9.412620032416804e+01,-3.376709114518171e+01
	2.000000000000000e-03,0.000000000000000e+00
	9.412620973678807e-04,-3.376709452189082e-04
	9.412620032416804e+02,-3.376709114518171e+02
	9.412620032416803e-05,-3.376709114518171e-05
	2.000000000000000e-03,0.000000000000000e+00
	1.000000000000000e-03,0.000000000000000e+00
	5.873790263211929e-05,3.376709452189082e-04
	9.412620973678806e+02,-3.376709452189082e+02
	0.000000000000000e+00,0.000000000000000e+00
9		1.227747082787869e+02,0.000000000000000e+00
	6.147510276057029e-02,3.452057656481503e-01
	1.000000000000000e+00,0.000000000000000e+00
	9.385248972394297e-01,-3.452057656481503e-01
	9.385248033869493e+01,-3.452057311275772e+01
	2.000000000000000e-03,-5.421010862427522e-20
	9.385248972394297e-04,-3.452057656481503e-04
	9.385248033869493e+02,-3.452057311275772e+02
	9.385248033869492e-05,-3.452057311275771e-05
	2.000000000000000e-03,0.000000000000000e+00
	1.000000000000000e-03,0.000000000000000e+00
	6.147510276057029e-05,3.452057656481503e-04
	9.385248972394297e+02,-3.452057656481502e+02
	0.000000000000000e+00,0.000000000000000e+00
10		1.256058598831886e+02,0.000000000000000e+00
	6.433965777112828e-02,3.528961994076919e-01
	1.000000000000000e+00,0.000000000000000e+00
	9.356603422288717e-01,-3.528961994076919e-01
	9.356602486628469e+01,-3.528961641180755e+01
	2.000000000000000e-03,0.000000000000000e+00
	9.356603422288717e-04,-3.528961994076919e-04
	9.356602486628469e+02,-3.528961641180755e+02
	9.356602486628468e-05,-3.528961641180755e-05
	2.000000000000000e-03,0.000000000000000e+00
	1.000000000000000e-03,0.000000000000000e+00
	6.433965777112828e-05,3.528961994076919e-04
	9.356603422288717e+02,-3.528961994076919e+02
	0.000000000000000e+00,0.000000000000000e+00
11		1.285022970787309e+02,0.000000000000000e+00
	6.733746752876335e-02,3.607445139089610e-01
	1.000000000000000e+00,0.000000000000000e+00
	9.326625324712366e-01,-3.607445139089610e-01
	9.326624392049928e+01,-3.607444778345132e+01
	2.000000000000000e-03,0.000000000000000e+00
	9.326625324712367e-04,-3.607445139089609e-04
	9.326624392049928e+02,-3.607444778345132e+02
	9.326624392049928e-05,-3.607444778345132e-05
	2.000000000000000e-03,0.000000000000000e+00
	1.000000000000000e-03,0.000000000000000e+00
	6.733746752876335e-05,3.607445139089609e-04
	9.326625324712367e+02,-3.607445139089609e+02
	0.000000000000000e+00,0.000000000000000e+00
12		1.314655253335082e+02,0.000000000000000e+00
	7.047470186102200e-02,3.687529310258795e-01
	1.000000000000000e+00,0.000000000000000e+00
	9.295252981389780e-01,-3.687529310258795e-01
	9.295252051864576e+01,-3.687528941505901e+01
	2.000000000000000e-03,-1.084202172485504e-19
	9.295252981389780e-04,-3.687529310258795e-04
	9.295252051864576e+02,-3.687528941505901e+02
	9.295252051864575e-05,-3.687528941505900e-05
	2.000000000000000e-03,0.000000000000000e+00
	1.000000000000000e-03,0.000000000000000e+00
	7.047470186102201e-05,3.687529310258795e-04
	9.295252981389780e+02,-3.687529310258795e+02
	0.000000000000000e+00,0.000000000000000e+00
13		1.344970848313024e+02,0.000000000000000e+00
	7.375781245608284e-02,3.769236186279686e-01
	1.000000000000000e+00,0.000000000000000e+00
	9.262421875439172e-01,-3.769236186279686e-01
	9.262420949197077e+01,-3.769235809356105e+01
	2.000000000000000e-03,5.421010862427522e-20
	9.262421875439172e-04,-3.769236186279686e-04
	9.262420949197077e+02,-3.769235809356105e+02
	9.262420949197077e-05,-3.769235809356105e-05
	2.000000000000000e-03,0.000000000000000e+00
	1.000000000000000e-03,0.000000000000000e+00
	7.375781245608284e-05,3.769236186279686e-04
	9.262421875439172e+02,-3.769236186279686e+02
	0.000000000000000e+00,0.000000000000000e+00
14		1.375985512721172e+02,0.000000000000000e+00
	7.719354522144371e-02,3.852586813388515e-01
	1.000000000000000e+00,0.000000000000000e+00
	9.228064547785563e-01,-3.852586813388515e-01
	9.228063624979201e+01,-3.852586428129873e+01
	2.000000000000000e-03,5.421010862427522e-20
	9.228064547785563e-04,-3.852586813388516e-04
	9.228063624979201e+02,-3.852586428129873e+02
	9.228063624979201e-05,-3.852586428129873e-05
	2.000000000000000e-03,0.000000000000000e+00
	1.000000000000000e-03,0.000000000000000e+00
	7.719354522144371e-05,3.852586813388516e-04
	9.228064547785563e+02,-3.852586813388515e+02
	0.000000000000000e+00,0.000000000000000e+00
15		1.407715366911727e+02,0.000000000000000e+00
	8.078895311167278e-02,3.937601504556301e-01
	1.000000000000000e+00,0.000000000000000e+00
	9.192110468883272e-01,-3.937601504556301e-01
	9.192109549672318e+01,-3.937601110796190e+01
	2.000000000000000e-03,-5.421010862427522e-20
	9.192110468883273e-04,-3.937601504556300e-04
	9.192109549672318e+02,-3.937601110796190e+02
	9.192109549672318e-05,-3.937601110796190e-05
	2.000000000000000e-03,0.000000000000000e+00
	1.000000000000000e-03,0.000000000000000e+00
	8.078895311167278e-05,3.937601504556300e-04
	9.192110468883272e+02,-3.937601504556301e+02
	0.000000000000000e+00,0.000000000000000e+00
16		1.440176902967860e+02,0.000000000000000e+00
	8.455140943222302e-02,4.024299729592856e-01
	1.000000000000000e+00,0.000000000000000e+00
	9.154485905677769e-01,-4.024299729592856e-01
	9.154484990229271e+01,-4.024299327162923e+01
	2.000000000000000e-03,-5.421010862427522e-20
	9.154485905677770e-04,-4.024299729592856e-04
	9.154484990229271e+02,-4.024299327162923e+02
	9.154484990229271e-05,-4.024299327162923e-05
	2.000000000000000e-03,0.000000000000000e+00
	1.000000000000000e-03,0.000000000000000e+00
	8.455140943222301e-05,4.024299729592856e-04
	9.154485905677769e+02,-4.024299729592856e+02
	0.000000000000000e+00,0.000000000000000e+00
17		1.473386993275719e+02,0.000000000000000e+00
	8.848862162455717e-02,4.112699995405266e-01
	1.000000000000000e+00,0.000000000000000e+00
	9.115113783754428e-01,-4.112699995405266e-01
	9.115112872243141e+01,-4.112699584135307e+01
	2.000000000000000e-03,-5.421010862427522e-20
	9.115113783754429e-04,-4.112699995405266e-04
	9.115112872243141e+02,-4.112699584135307e+02
	9.115112872243140e-05,-4.112699584135307e-05
	2.000000000000000e-03,0.000000000000000e+00
	1.000000000000000e-03,0.000000000000000e+00
	8.848862162455718e-05,4.112699995405266e-04
	9.115113783754429e+02,-4.112699995405266e+02
	0.000000000000000e+00,0.000000000000000e+00
18		1.507362899294123e+02,0.000000000000000e+00
	9.260864553570007e-02,4.202819715592971e-01
	1.000000000000000e+00,0.000000000000000e+00
	9.073913544643000e-01,-4.202819715592971e-01
	9.073912637251736e+01,-4.202819295311042e+01
	2.000000000000000e-03,-1.084202172485504e-19
	9.073913544642999e-04,-4.202819715592971e-04
	9.073912637251736e+02,-4.202819295311042e+02
	9.073912637251736e-05,-4.202819295311042e-05
	2.000000000000000e-03,0.000000000000000e+00
	1.000000000000000e-03,0.000000000000000e+00
	9.260864553570007e-05,4.202819715592971e-04
	9.073913544643000e+02,-4.202819715592971e+02
	0.000000000000000e+00,0.000000000000000e+00
19		1.542122280526466e+02,0.000000000000000e+00
	9.691990017277953e-02,4.294675068494810e-01
	1.000000000000000e+00,0.000000000000000e+00
	9.030800998272205e-01,-4.294675068494810e-01
	9.030800095192195e+01,-4.294674639027346e+01
	2.000000000000000e-03,1.084202172485504e-19
	9.030800998272205e-04,-4.294675068494810e-04
	9.030800095192195e+02,-4.294674639027346e+02
	9.030800095192195e-05,-4.294674639027346e-05
	2.000000000000000e-03,0.000000000000000e+00
	1.000000000000000e-03,0.000000000000000e+00
	9.691990017277954e-05,4.294675068494810e-04
	9.030800998272205e+02,-4.294675068494810e+02
	0.000000000000000e+00,0.000000000000000e+00
20		1.577683203699520e+02,0.000000000000000e+00
	1.014311829400606e-01,4.388280842731244e-01
	1.000000000000000e+00,0.000000000000000e+00
	8.985688170599393e-01,-4.388280842731244e-01
	8.985687272030667e+01,-4.388280403903204e+01
	2.000000000000000e-03,0.000000000000000e+00
	8.985688170599393e-04,-4.388280842731244e-04
	8.985687272030667e+02,-4.388280403903204e+02
	8.985687272030667e-05,-4.388280403903203e-05
	2.000000000000000e-03,0.000000000000000e+00
	1.000000000000000e-03,0.000000000000000e+00
	1.014311829400607e-04,4.388280842731244e-04
	8.985688170599393e+02,-4.388280842731244e+02
	0.000000000000000e+00,0.000000000000000e+00
21		1.614064152153894e+02,0.000000000000000e+00
	1.061516853523500e-01,4.483650269207402e-01
	1.000000000000000e+00,0.000000000000000e+00
	8.938483146476499e-01,-4.483650269207402e-01
	8.938482252628275e+01,-4.483649820842420e+01
	2.000000000000000e-03,0.000000000000000e+00
	8.938483146476499e-04,-4.483650269207402e-04
	8.938482252628274e+02,-4.483649820842419e+02
	8.938482252628274e-05,-4.483649820842419e-05
	2.000000000000000e-03,0.000000000000000e+00
	1.000000000000000e-03,0.000000000000000e+00
	1.061516853523500e-04,4.483650269207402e-04
	8.938483146476499e+02,-4.483650269207401e+02
	0.000000000000000e+00,0.000000000000000e+00
22		1.651284035451041e+02,0.000000000000000e+00
	1.110910092143641e-01,4.580794838459076e-01
	1.000000000000000e+00,0.000000000000000e+00
	8.889089907856359e-01,-4.580794838459076e-01
	8.889089018947458e+01,-4.580794380379638e+01
	2.000000000000000e-03,-1.084202172485504e-19
	8.889089907856359e-04,-4.580794838459076e-04
	8.889089018947458e+02,-4.580794380379638e+02
	8.889089018947457e-05,-4.580794380379638e-05
	2.000000000000000e-03,0.000000000000000e+00
	1.000000000000000e-03,0.000000000000000e+00
	1.110910092143641e-04,4.580794838459076e-04
	8.889089907856359e+02,-4.580794838459076e+02
	0.000000000000000e+00,0.000000000000000e+00
23		1.689362199201789e+02,0.000000000000000e+00
	1.162591832506119e-01,4.679724102134159e-01
	1.000000000000000e+00,0.000000000000000e+00
	8.837408167493881e-01,-4.679724102134159e-01
	8.837407283753153e+01,-4.679723634161796e+01
	2.000000000000000e-03,1.084202172485504e-19
	8.837408167493881e-04,-4.679724102134159e-04
	8.837407283753153e+02,-4.679723634161796e+02
	8.837407283753153e-05,-4.679723634161796e-05
	2.000000000000000e-03,0.000000000000000e+00
	1.000000000000000e-03,0.000000000000000e+00
	1.162591832506119e-04,4.679724102134159e-04
	8.837408167493880e+02,-4.679724102134159e+02
	0.000000000000000e+00,0.000000000000000e+00
24		1.728318435121529e+02,0.000000000000000e+00
	1.216666801644415e-01,4.780445457305830e-01
	1.000000000000000e+00,0.000000000000000e+00
	8.783333198355585e-01,-4.780445457305830e-01
	8.783332320022353e+01,-4.780444979261333e+01
	2.000000000000000e-03,1.084202172485504e-19
	8.783333198355586e-04,-4.780445457305830e-04
	8.783332320022353e+02,-4.780444979261333e+02
	8.783332320022353e-05,-4.780444979261332e-05
	2.000000000000000e-03,0.000000000000000e+00
	1.000000000000000e-03,0.000000000000000e+00
	1.216666801644415e-04,4.780445457305830e-04
	8.783333198355585e+02,-4.780445457305830e+02
	0.000000000000000e+00,0.000000000000000e+00
25		1.768172991317259e+02,0.000000000000000e+00
	1.273244340979957e-01,4.882963912210875e-01
	1.000000000000000e+00,0.000000000000000e+00
	8.726755659020042e-01,-4.882963912210875e-01
	8.726754786344564e+01,-4.882963423914533e+01
	2.000000000000000e-03,1.084202172485504e-19
	8.726755659020042e-04,-4.882963912210875e-04
	8.726754786344565e+02,-4.882963423914533e+02
	8.726754786344564e-05,-4.882963423914532e-05
	2.000000000000000e-03,0.000000000000000e+00
	1.000000000000000e-03,0.000000000000000e+00
	1.273244340979958e-04,4.882963912210875e-04
	8.726755659020042e+02,-4.882963912210875e+02
	0.000000000000000e+00,0.000000000000000e+00
26		1.808946582811855e+02,0.000000000000000e+00
	1.332438584567994e-01,4.987281831896556e-01
	1.000000000000000e+00,0.000000000000000e+00
	8.667561415432006e-01,-4.987281831896556e-01
	8.667560548675951e+01,-4.987281333168423e+01
	2.000000000000000e-03,0.000000000000000e+00
	8.667561415432005e-04,-4.987281831896555e-04
	8.667560548675951e+02,-4.987281333168423e+02
	8.667560548675951e-05,-4.987281333168423e-05
	2.000000000000000e-03,0.000000000000000e+00
	1.000000000000000e-03,0.000000000000000e+00
	1.332438584567994e-04,4.987281831896555e-04
	8.667561415432006e+02,-4.987281831896556e+02
	0.000000000000000e+00,0.000000000000000e+00
27		1.850660402311025e+02,0.000000000000000e+00
	1.394368640533656e-01,5.093398662142239e-01
	1.000000000000000e+00,0.000000000000000e+00
	8.605631359466344e-01,-5.093398662142239e-01
	8.605630498903294e+01,-5.093398152802424e+01
	2.000000000000000e-03,2.168404344971009e-19
	8.605631359466343e-04,-5.093398662142239e-04
	8.605630498903294e+02,-5.093398152802424e+02
	8.605630498903293e-05,-5.093398152802424e-05
	2.000000000000000e-03,0.000000000000000e+00
	1.000000000000000e-03,0.000000000000000e+00
	1.394368640533656e-04,5.093398662142239e-04
	8.605631359466344e+02,-5.093398662142239e+02
	0.000000000000000e+00,0.000000000000000e+00
28		1.893336131218546e+02,0.000000000000000e+00
	1.459158775134117e-01,5.201310629897453e-01
	1.000000000000000e+00,0.000000000000000e+00
	8.540841224865883e-01,-5.201310629897453e-01
	8.540840370781847e+01,-5.201310109766442e+01
	2.000000000000000e-03,0.000000000000000e+00
	8.540841224865883e-04,-5.201310629897453e-04
	8.540840370781847e+02,-5.201310109766442e+02
	8.540840370781846e-05,-5.201310109766442e-05
	2.000000000000000e-03,0.000000000000000e+00
	1.000000000000000e-03,0.000000000000000e+00
	1.459158775134117e-04,5.201310629897453e-04
	8.540841224865883e+02,-5.201310629897454e+02
	0.000000000000000e+00,0.000000000000000e+00
29		1.936995950905506e+02,0.000000000000000e+00
	1.526938598757854e-01,5.311010418346069e-01
	1.000000000000000e+00,0.000000000000000e+00
	8.473061401242146e-01,-5.311010418346069e-01
	8.473060553936091e+01,-5.311009887245081e+01
	2.000000000000000e-03,-1.084202172485504e-19
	8.473061401242146e-04,-5.311010418346069e-04
	8.473060553936091e+02,-5.311009887245082e+02
	8.473060553936091e-05,-5.311009887245081e-05
	2.000000000000000e-03,0.000000000000000e+00
	1.000000000000000e-03,0.000000000000000e+00
	1.526938598757854e-04,5.311010418346069e-04
	8.473061401242146e+02,-5.311010418346069e+02
	0.000000000000000e+00,0.000000000000000e+00
30		1.981662554239420e+02,0.000000000000000e+00
	1.597843253028006e-01,5.422486814567059e-01
	1.000000000000000e+00,0.000000000000000e+00
	8.402156746971994e-01,-5.422486814567059e-01
	8.402155906756404e+01,-5.422486272318432e+01
	2.000000000000000e-03,1.084202172485504e-19
	8.402156746971994e-04,-5.422486814567059e-04
	8.402155906756404e+02,-5.422486272318432e+02
	8.402155906756404e-05,-5.422486272318432e-05
	2.000000000000000e-03,0.000000000000000e+00
	1.000000000000000e-03,0.000000000000000e+00
	1.597843253028006e-04,5.422486814567059e-04
	8.402156746971993e+02,-5.422486814567059e+02
	0.000000000000000e+00,0.000000000000000e+00
31		2.027359157379197e+02,0.000000000000000e+00
	1.672013598011087e-01,5.535724327615897e-01
	1.000000000000000e+00,0.000000000000000e+00
	8.327986401988913e-01,-5.535724327615897e-01
	8.327985569190356e+01,-5.535723774043520e+01
	2.000000000000000e-03,-1.084202172485504e-19
	8.327986401988913e-04,-5.535724327615897e-04
	8.327985569190356e+02,-5.535723774043520e+02
	8.327985569190356e-05,-5.535723774043520e-05
	2.000000000000000e-03,0.000000000000000e+00
	1.000000000000000e-03,0.000000000000000e+00
	1.672013598011087e-04,5.535724327615897e-04
	8.327986401988912e+02,-5.535724327615898e+02
	0.000000000000000e+00,0.000000000000000e+00
32		2.074109511842097e+02,0.000000000000000e+00
	1.749596398341832e-01,5.650702774697686e-01
	1.000000000000000e+00,0.000000000000000e+00
	8.250403601658167e-01,-5.650702774697686e-01
	8.250402776617889e+01,-5.650702209627465e+01
	2.000000000000000e-03,0.000000000000000e+00
	8.250403601658167e-04,-5.650702774697686e-04
	8.250402776617889e+02,-5.650702209627466e+02
	8.250402776617889e-05,-5.650702209627465e-05
	2.000000000000000e-03,0.000000000000000e+00
	1.000000000000000e-03,0.000000000000000e+00
	1.749596398341832e-04,5.650702774697686e-04
	8.250403601658168e+02,-5.650702774697686e+02
	0.000000000000000e+00,0.000000000000000e+00
33		2.121937916848953e+02,0.000000000000000e+00
	1.830744506856641e-01,5.767396832944088e-01
	1.000000000000000e+00,0.000000000000000e+00
	8.169255493143359e-01,-5.767396832944088e-01
	8.169254676217892e+01,-5.767396256204463e+01
	2.000000000000000e-03,0.000000000000000e+00
	8.169255493143359e-04,-5.767396832944088e-04
	8.169254676217893e+02,-5.767396256204463e+02
	8.169254676217891e-05,-5.767396256204463e-05
	2.000000000000000e-03,0.000000000000000e+00
	1.000000000000000e-03,0.000000000000000e+00
	1.830744506856641e-04,5.767396832944088e-04
	8.169255493143360e+02,-5.767396832944088e+02
	0.000000000000000e+00,0.000000000000000e+00
34		2.170869231954065e+02,0.000000000000000e+00
	1.915617044078083e-01,5.885775554142200e-01
	1.000000000000000e+00,0.000000000000000e+00
	8.084382955921916e-01,-5.885775554142200e-01
	8.084382147483701e+01,-5.885774965564703e+01
	2.000000000000000e-03,0.000000000000000e+00
	8.084382955921916e-04,-5.885775554142200e-04
	8.084382147483701e+02,-5.885774965564704e+02
	8.084382147483700e-05,-5.885774965564703e-05
	2.000000000000000e-03,0.000000000000000e+00
	1.000000000000000e-03,0.000000000000000e+00
	1.915617044078083e-04,5.885775554142200e-04
	8.084382955921916e+02,-5.885775554142200e+02
	0.000000000000000e+00,0.000000000000000e+00
35		2.220928889966340e+02,0.000000000000000e+00
	2.004379571607373e-01,6.005801839595871e-01
	1.000000000000000e+00,0.000000000000000e+00
	7.995620428392627e-01,-6.005801839595871e-01
	7.995619628830664e+01,-6.005801239015748e+01
	2.000000000000000e-03,-1.084202172485504e-19
	7.995620428392627e-04,-6.005801839595871e-04
	7.995619628830664e+02,-6.005801239015748e+02
	7.995619628830664e-05,-6.005801239015748e-05
	2.000000000000000e-03,0.000000000000000e+00
	1.000000000000000e-03,0.000000000000000e+00
	2.004379571607373e-04,6.005801839595871e-04
	7.995620428392626e+02,-6.005801839595871e+02
	0.000000000000000e+00,0.000000000000000e+00
36		2.272142910168387e+02,0.000000000000000e+00
	2.097204257155961e-01,6.127431872130564e-01
	1.000000000000000e+00,0.000000000000000e+00
	7.902795742844040e-01,-6.127431872130564e-01
	7.902794952564545e+01,-6.127431259387438e+01
	2.000000000000000e-03,0.000000000000000e+00
	7.902795742844040e-04,-6.127431872130565e-04
	7.902794952564545e+02,-6.127431259387438e+02
	7.902794952564545e-05,-6.127431259387438e-05
	2.000000000000000e-03,0.000000000000000e+00
	1.000000000000000e-03,0.000000000000000e+00
	2.097204257155961e-04,6.127431872130565e-04
	7.902795742844040e+02,-6.127431872130564e+02
	0.000000000000000e+00,0.000000000000000e+00
37		2.324537911840441e+02,0.000000000000000e+00
	2.194270028576609e-01,6.250614502084040e-01
	1.000000000000000e+00,0.000000000000000e+00
	7.805729971423392e-01,-6.250614502084040e-01
	7.805729190850474e+01,-6.250613877022653e+01
	2.000000000000000e-03,0.000000000000000e+00
	7.805729971423392e-04,-6.250614502084040e-04
	7.805729190850474e+02,-6.250613877022653e+02
	7.805729190850473e-05,-6.250613877022653e-05
	2.000000000000000e-03,0.000000000000000e+00
	1.000000000000000e-03,0.000000000000000e+00
	2.194270028576609e-04,6.250614502084040e-04
	7.805729971423392e+02,-6.250614502084039e+02
	0.000000000000000e+00,0.000000000000000e+00
38		2.378141128096151e+02,0.000000000000000e+00
	2.295762713832949e-01,6.375290583959976e-01
	1.000000000000000e+00,0.000000000000000e+00
	7.704237286167051e-01,-6.375290583959976e-01
	7.704236515743399e+01,-6.375289946430982e+01
	2.000000000000000e-03,0.000000000000000e+00
	7.704237286167051e-04,-6.375290583959976e-04
	7.704236515743399e+02,-6.375289946430983e+02
	7.704236515743399e-05,-6.375289946430982e-05
	2.000000000000000e-03,0.000000000000000e+00
	1.000000000000000e-03,0.000000000000000e+00
	2.295762713832950e-04,6.375290583959976e-04
	7.704237286167050e+02,-6.375290583959976e+02
	0.000000000000000e+00,0.000000000000000e+00
39		2.432980420037406e+02,0.000000000000000e+00
	2.401875163368679e-01,6.501392260264053e-01
	1.000000000000000e+00,0.000000000000000e+00
	7.598124836631321e-01,-6.501392260264053e-01
	7.598124076818914e+01,-6.501391610124892e+01
	2.000000000000000e-03,1.084202172485504e-19
	7.598124836631321e-04,-6.501392260264053e-04
	7.598124076818914e+02,-6.501391610124892e+02
	7.598124076818913e-05,-6.501391610124892e-05
	2.000000000000000e-03,0.000000000000000e+00
	1.000000000000000e-03,0.000000000000000e+00
	2.401875163368679e-04,6.501392260264053e-04
	7.598124836631322e+02,-6.501392260264053e+02
	0.000000000000000e+00,0.000000000000000e+00
40		2.489084291235582e+02,0.000000000000000e+00
	2.512807350796756e-01,6.628842188896819e-01
	1.000000000000000e+00,0.000000000000000e+00
	7.487192649203245e-01,-6.628842188896819e-01
	7.487191900484055e+01,-6.628841526012667e+01
	2.000000000000000e-03,-1.084202172485504e-19
	7.487192649203245e-04,-6.628842188896819e-04
	7.487191900484055e+02,-6.628841526012667e+02
	7.487191900484055e-05,-6.628841526012667e-05
	2.000000000000000e-03,0.000000000000000e+00
	1.000000000000000e-03,0.000000000000000e+00
	2.512807350796756e-04,6.628842188896819e-04
	7.487192649203245e+02,-6.628842188896818e+02
	0.000000000000000e+00,0.000000000000000e+00
41		2.546481902546707e+02,0.000000000000000e+00
	2.628766447218282e-01,6.757552710351193e-01
	1.000000000000000e+00,0.000000000000000e+00
	7.371233552781717e-01,-6.757552710351193e-01
	7.371232815658436e+01,-6.757552034595990e+01
	2.000000000000000e-03,0.000000000000000e+00
	7.371233552781718e-04,-6.757552710351194e-04
	7.371232815658436e+02,-6.757552034595990e+02
	7.371232815658436e-05,-6.757552034595990e-05
	2.000000000000000e-03,0.000000000000000e+00
	1.000000000000000e-03,0.000000000000000e+00
	2.628766447218282e-04,6.757552710351194e-04
	7.371233552781717e+02,-6.757552710351193e+02
	0.000000000000000e+00,0.000000000000000e+00
42		2.605203087268271e+02,0.000000000000000e+00
	2.749966863792713e-01,6.887424950861746e-01
	1.000000000000000e+00,0.000000000000000e+00
	7.250033136207288e-01,-6.887424950861746e-01
	7.250032411204047e+01,-6.887424262119320e+01
	2.000000000000000e-03,-1.084202172485504e-19
	7.250033136207288e-04,-6.887424950861746e-04
	7.250032411204047e+02,-6.887424262119321e+02
	7.250032411204047e-05,-6.887424262119320e-05
	2.000000000000000e-03,0.000000000000000e+00
	1.000000000000000e-03,0.000000000000000e+00
	2.749966863792713e-04,6.887424950861746e-04
	7.250033136207288e+02,-6.887424950861746e+02
	0.000000000000000e+00,0.000000000000000e+00
43		2.665278366645547e+02,0.000000000000000e+00
	2.876630256407852e-01,7.018347857587628e-01
	1.000000000000000e+00,0.000000000000000e+00
	7.123369743592147e-01,-7.018347857587628e-01
	7.123369031255244e+01,-7.018347155752913e+01
	2.000000000000000e-03,-1.084202172485504e-19
	7.123369743592148e-04,-7.018347857587628e-04
	7.123369031255244e+02,-7.018347155752913e+02
	7.123369031255244e-05,-7.018347155752912e-05
	2.000000000000000e-03,0.000000000000000e+00
	1.000000000000000e-03,0.000000000000000e+00
	2.876630256407852e-04,7.018347857587628e-04
	7.123369743592148e+02,-7.018347857587628e+02
	0.000000000000000e+00,0.000000000000000e+00
44		2.726738965735476e+02,0.000000000000000e+00
	3.008985485431618e-01,7.150197161891930e-01
	1.000000000000000e+00,0.000000000000000e+00
	6.991014514568381e-01,-7.150197161891930e-01
	6.991013815466999e+01,-7.150196446872286e+01
	2.000000000000000e-03,1.084202172485504e-19
	6.991014514568381e-04,-7.150197161891930e-04
	6.991013815466999e+02,-7.150196446872286e+02
	6.991013815467000e-05,-7.150196446872285e-05
	2.000000000000000e-03,0.000000000000000e+00
	1.000000000000000e-03,0.000000000000000e+00
	3.008985485431619e-04,7.150197161891930e-04
	6.991014514568382e+02,-7.150197161891930e+02
	0.000000000000000e+00,0.000000000000000e+00
45		2.789616829636377e+02,0.000000000000000e+00
	3.147268522559372e-01,7.282834266820852e-01
	1.000000000000000e+00,0.000000000000000e+00
	6.852731477440628e-01,-7.282834266820852e-01
	6.852730792167549e+01,-7.282833538537498e+01
	2.000000000000000e-03,0.000000000000000e+00
	6.852731477440628e-04,-7.282834266820852e-04
	6.852730792167549e+02,-7.282833538537499e+02
	6.852730792167548e-05,-7.282833538537498e-05
	2.000000000000000e-03,0.000000000000000e+00
	1.000000000000000e-03,0.000000000000000e+00
	3.147268522559372e-04,7.282834266820852e-04
	6.852731477440627e+02,-7.282834266820852e+02