Title: * C:\Users\georgtree1\AppData\Local\LTspice\examples\Educational\IdealTransformer.asc
Date: Sun Jan 26 15:44:10 2025
Plotname: Transient Analysis
Flags: real double forward
No. Variables: 13
No. Points:         1042
Offset:    0.0000000000000000e+00
Command: Linear Technology Corporation LTspice
Variables:
	0	time	time
	1	V(n002)	voltage
	2	V(in)	voltage
	3	V(n001)	voltage
	4	V(out)	voltage
	5	I(Rin)	device_current
	6	I(R2)	device_current
	7	I(Rload)	device_current
	8	I(G1)	device_current
	9	I(G2)	device_current
	10	I(G3)	device_current
	11	I(G4)	device_current
	12	I(V1)	device_current
Values:
0		0.000000000000000e+00
	0.000000000000000e+00
	0.000000000000000e+00
	0.000000000000000e+00
	0.000000000000000e+00
	0.000000000000000e+00
	0.000000000000000e+00
	0.000000000000000e+00
	0.000000000000000e+00
	0.000000000000000e+00
	0.000000000000000e+00
	0.000000000000000e+00
	0.000000000000000e+00
1		4.882812487672084e-10
	3.129320799385915e-05
	3.127366195513720e-05
	1.954603872194854e-08
	-7.818415488779414e-06
	1.954603872194981e-08
	1.954603872194854e-17
	-7.818415488779414e-08
	3.127366195513720e-05
	-3.127366195511766e-05
	1.954603872194854e-08
	7.818415488779414e-08
	-1.954603872194981e-08
2		9.765624975344167e-10
	6.258641598771723e-05
	6.254732391027333e-05
	3.909207744389640e-08
	-1.563683097755856e-05
	3.909207744389961e-08
	3.909207744389640e-17
	-1.563683097755856e-07
	6.254732391027333e-05
	-6.254732391023424e-05
	3.909207744389640e-08
	1.563683097755856e-07
	-3.909207744389961e-08
3		1.953124995068833e-09
	1.251728319754260e-04
	1.250946478205382e-04
	7.818415488778751e-08
	-3.127366195511501e-05
	7.818415488779922e-08
	7.818415488778752e-17
	-3.127366195511501e-07
	1.250946478205382e-04
	-1.250946478204600e-04
	7.818415488778751e-08
	3.127366195511500e-07
	-7.818415488779922e-08
4		3.906249990137667e-09
	2.503456639507841e-04
	2.501892956410085e-04
	1.563683097755326e-07
	-6.254732391021305e-05
	1.563683097755442e-07
	1.563683097755326e-16
	-6.254732391021305e-07
	2.501892956410085e-04
	-2.501892956408522e-04
	1.563683097755326e-07
	6.254732391021305e-07
	-1.563683097755442e-07
5		7.812499980275334e-09
	5.006913279010253e-04
	5.003785912814745e-04
	3.127366195507262e-07
	-1.250946478202905e-04
	3.127366195507632e-07
	3.127366195507262e-16
	-1.250946478202905e-06
	5.003785912814745e-04
	-5.003785912811618e-04
	3.127366195507262e-07
	1.250946478202905e-06
	-3.127366195507632e-07
6		1.562499996055067e-08
	1.001382655797707e-03
	1.000757182558609e-03
	6.254732390987396e-07
	-2.501892956394958e-04
	6.254732390987075e-07
	6.254732390987396e-16
	-2.501892956394958e-06
	1.000757182558609e-03
	-1.000757182557983e-03
	6.254732390987396e-07
	2.501892956394958e-06
	-6.254732390987075e-07
7		3.124999992110133e-08
	2.002765311560669e-03
	2.001514365082493e-03
	1.250946478175776e-06
	-5.003785912703105e-04
	1.250946478175731e-06
	1.250946478175776e-15
	-5.003785912703105e-06
	2.001514365082493e-03
	-2.001514365081242e-03
	1.250946478175776e-06
	5.003785912703105e-06
	-1.250946478175731e-06
8		6.249999984220267e-08
	4.005530622843372e-03
	4.003028729887194e-03
	2.501892956177932e-06
	-1.000757182471173e-03
	2.501892956177990e-06
	2.501892956177933e-15
	-1.000757182471173e-05
	4.003028729887194e-03
	-4.003028729884692e-03
	2.501892956177932e-06
	1.000757182471173e-05
	-2.501892956177990e-06
9		1.249999996844053e-07
	8.011061243463012e-03
	8.006057457552045e-03
	5.003785910966901e-06
	-2.001514364386761e-03
	5.003785910966466e-06
	5.003785910966901e-15
	-2.001514364386761e-05
	8.006057457552045e-03
	-8.006057457547042e-03
	5.003785910966901e-06
	2.001514364386760e-05
	-5.003785910966466e-06
10		2.499999993688107e-07
	1.602212246913617e-02
	1.601211489732535e-02
	1.000757181082209e-05
	-4.003028724328836e-03
	1.000757181082376e-05
	1.000757181082209e-14
	-4.003028724328836e-05
	1.601211489732535e-02
	-1.601211489731534e-02
	1.000757181082209e-05
	4.003028724328836e-05
	-1.000757181082376e-05
11		4.999999987376214e-07
	3.204424479595353e-02
	3.202422965242078e-02
	2.001514353275048e-05
	-8.006057413100192e-03
	2.001514353275335e-05
	2.001514353275048e-14
	-8.006057413100191e-05
	3.202422965242078e-02
	-3.202422965240077e-02
	2.001514353275048e-05
	8.006057413100191e-05
	-2.001514353275335e-05
12		9.999999974752427e-07
	6.408848845335660e-02
	6.404845816700225e-02
	4.003028635435139e-05
	-1.601211454174055e-02
	4.003028635435335e-05
	4.003028635435139e-14
	-1.601211454174055e-04
	6.404845816700225e-02
	-6.404845816696221e-02
	4.003028635435139e-05
	1.601211454174055e-04
	-4.003028635435335e-05
13		1.999999994950485e-06
	1.281769677983098e-01
	1.280969072312903e-01
	8.006056701950638e-05
	-3.202422680780255e-02
	8.006056701950759e-05
	8.006056701950639e-14
	-3.202422680780255e-04
	1.280969072312903e-01
	-1.280969072312102e-01
	8.006056701950638e-05
	3.202422680780255e-04
	-8.006056701950759e-05
14		3.999999989900971e-06
	2.563538627293998e-01
	2.561937416408743e-01
	1.601210885254464e-04
	-6.404843541017854e-02
	1.601210885254223e-04
	1.601210885254464e-13
	-6.404843541017854e-04
	2.561937416408743e-01
	-2.561937416407142e-01
	1.601210885254464e-04
	6.404843541017854e-04
	-1.601210885254223e-04
15		7.999999979801942e-06
	5.127071425212897e-01
	5.123869007083471e-01
	3.202418129425168e-04
	-1.280967251770067e-01
	3.202418129425455e-04
	3.202418129425168e-13
	-1.280967251770067e-03
	5.123869007083471e-01
	-5.123869007080269e-01
	3.202418129425168e-04
	1.280967251770067e-03
	-3.202418129425455e-04
16		1.599999995960388e-05
	1.025409621550454e+00
	1.024769140837432e+00
	6.404807130229944e-04
	-2.561922852091977e-01
	6.404807130229173e-04
	6.404807130229945e-13
	-2.561922852091978e-03
	1.024769140837432e+00
	-1.024769140836791e+00
	6.404807130229944e-04
	2.561922852091978e-03
	-6.404807130229173e-04
17		3.199999991920777e-05
	2.050781935418419e+00
	2.049500997295110e+00
	1.280938123308643e-03
	-5.123752493234573e-01
	1.280938123308761e-03
	1.280938123308643e-12
	-5.123752493234573e-03
	2.049500997295110e+00
	-2.049500997293829e+00
	1.280938123308643e-03
	5.123752493234573e-03
	-1.280938123308761e-03
18		6.399999983841553e-05
	4.101265417521105e+00
	4.098703727691299e+00
	2.561689829805461e-03
	-1.024675931922184e+00
	2.561689829805758e-03
	2.561689829805461e-12
	-1.024675931922184e-02
	4.098703727691299e+00
	-4.098703727688737e+00
	2.561689829805461e-03
	1.024675931922184e-02
	-2.561689829805758e-03
19		1.128281248384155e-04
	7.228803927727599e+00
	7.224288747260564e+00
	4.515180467035030e-03
	-1.806072186814012e+00
	4.515180467034696e-03
	4.515180467035030e-12
	-1.806072186814012e-02
	7.224288747260564e+00
	-7.224288747256049e+00
	4.515180467035030e-03
	1.806072186814012e-02
	-4.515180467034696e-03
20		1.616562498384155e-04
	1.035389305597453e+01
	1.034742591477780e+01
	6.467141196732085e-03
	-2.586856478692834e+00
	6.467141196731419e-03
	6.467141196732085e-12
	-2.586856478692834e-02
	1.034742591477780e+01
	-1.034742591477134e+01
	6.467141196732085e-03
	2.586856478692834e-02
	-6.467141196731419e-03
21		2.104843748384156e-04
	1.347547390828591e+01
	1.346705699766238e+01
	8.416910623533726e-03
	-3.366764249413491e+00
	8.416910623534335e-03
	8.416910623533727e-12
	-3.366764249413490e-02
	1.346705699766238e+01
	-1.346705699765396e+01
	8.416910623533726e-03
	3.366764249413490e-02
	-8.416910623534335e-03
22		2.593124998384155e-04
	1.659248877941734e+01
	1.658212495132278e+01
	1.036382809457026e-02
	-4.145531237828102e+00
	1.036382809456882e-02
	1.036382809457026e-11
	-4.145531237828103e-02
	1.658212495132278e+01
	-1.658212495131241e+01
	1.036382809457026e-02
	4.145531237828103e-02
	-1.036382809456882e-02
23		3.081406248384155e-04
	1.970388151124512e+01
	1.969157427732180e+01
	1.230723392331843e-02
	-4.922893569327374e+00
	1.230723392331967e-02
	1.230723392331843e-11
	-4.922893569327374e-02
	1.969157427732180e+01
	-1.969157427730950e+01
	1.230723392331843e-02
	4.922893569327374e-02
	-1.230723392331967e-02
24		3.569687498384155e-04
	2.280859785063102e+01
	2.279435138101789e+01
	1.424646961312728e-02
	-5.698587845250911e+00
	1.424646961312703e-02
	1.424646961312728e-11
	-5.698587845250911e-02
	2.279435138101789e+01
	-2.279435138100364e+01
	1.424646961312728e-02
	5.698587845250911e-02
	-1.424646961312703e-02
25		4.057968748384155e-04
	2.590558580664163e+01
	2.588940492856129e+01
	1.618087808034069e-02
	-6.472351232136277e+00
	1.618087808034119e-02
	1.618087808034069e-11
	-6.472351232136277e-02
	2.588940492856129e+01
	-2.588940492854511e+01
	1.618087808034069e-02
	6.472351232136277e-02
	-1.618087808034119e-02
26		4.546249998384155e-04
	2.899379600700123e+01
	2.897568620312429e+01
	1.810980387694136e-02
	-7.243921550776545e+00
	1.810980387694272e-02
	1.810980387694136e-11
	-7.243921550776544e-02
	2.897568620312429e+01
	-2.897568620310618e+01
	1.810980387694136e-02
	7.243921550776544e-02
	-1.810980387694272e-02
27		5.034531248384155e-04
	3.207218205365729e+01
	3.205214946024466e+01
	2.003259341264039e-02
	-8.013037365056155e+00
	2.003259341263686e-02
	2.003259341264039e-11
	-8.013037365056155e-02
	3.205214946024466e+01
	-3.205214946022462e+01
	2.003259341264039e-02
	8.013037365056155e-02
	-2.003259341263686e-02
28		5.522812498384155e-04
	3.513970087733826e+01
	3.511775228216192e+01
	2.194859517633749e-02
	-8.779438070534995e+00
	2.194859517634029e-02
	2.194859517633749e-11
	-8.779438070534995e-02
	3.511775228216192e+01
	-3.511775228213998e+01
	2.194859517633749e-02
	8.779438070534995e-02
	-2.194859517634029e-02
29		6.011093748384156e-04
	3.819531309098334e+01
	3.817145593102646e+01
	2.385715995687663e-02
	-9.542863982750651e+00
	2.385715995687576e-02
	2.385715995687663e-11
	-9.542863982750652e-02
	3.817145593102646e+01
	-3.817145593100260e+01
	2.385715995687663e-02
	9.542863982750652e-02
	-2.385715995687576e-02
30		6.499374998384156e-04
	4.123798334192475e+01
	4.121222570086172e+01
	2.575764106302248e-02
	-1.030305642520899e+01
	2.575764106302358e-02
	2.575764106302248e-11
	-1.030305642520899e-01
	4.121222570086172e+01
	-4.121222570083597e+01
	2.575764106302248e-02
	1.030305642520899e-01
	-2.575764106302358e-02
31		6.987656248384157e-04
	4.426668066270285e+01
	4.423903126816026e+01
	2.764939454258289e-02
	-1.105975781703315e+01
	2.764939454258553e-02
	2.764939454258289e-11
	-1.105975781703315e-01
	4.423903126816026e+01
	-4.423903126813261e+01
	2.764939454258289e-02
	1.105975781703315e-01
	-2.764939454258553e-02
32		7.475937498384157e-04
	4.728037882039548e+01
	4.725084704099487e+01
	2.953177940060334e-02
	-1.181271176024134e+01
	2.953177940060669e-02
	2.953177940060334e-11
	-1.181271176024134e-01
	4.725084704099487e+01
	-4.725084704096535e+01
	2.953177940060334e-02
	1.181271176024134e-01
	-2.953177940060669e-02
33		7.964218748384158e-04
	5.027805666434304e+01
	5.024665250652648e+01
	3.140415781655943e-02
	-1.256166312662377e+01
	3.140415781656003e-02
	3.140415781655943e-11
	-1.256166312662377e-01
	5.024665250652648e+01
	-5.024665250649508e+01
	3.140415781655943e-02
	1.256166312662377e-01
	-3.140415781656003e-02
34		8.452499998384158e-04
	5.325869847215147e+01
	5.322543257679100e+01
	3.326589536047359e-02
	-1.330635814418943e+01
	3.326589536047209e-02
	3.326589536047359e-11
	-1.330635814418943e-01
	5.322543257679100e+01
	-5.322543257675774e+01
	3.326589536047359e-02
	1.330635814418943e-01
	-3.326589536047209e-02
35		8.940781248384158e-04
	5.622129429385604e+01
	5.618617793264816e+01
	3.511636120788315e-02
	-1.404654448315326e+01
	3.511636120788353e-02
	3.511636120788316e-11
	-1.404654448315326e-01
	5.618617793264816e+01
	-5.618617793261305e+01
	3.511636120788315e-02
	1.404654448315326e-01
	-3.511636120788353e-02
36		9.429062498384159e-04
	5.916484029412911e+01
	5.912788536577553e+01
	3.695492835358661e-02
	-1.478197134143464e+01
	3.695492835358749e-02
	3.695492835358661e-11
	-1.478197134143464e-01
	5.912788536577553e+01
	-5.912788536573858e+01
	3.695492835358661e-02
	1.478197134143464e-01
	-3.695492835358749e-02
37		9.917343748384159e-04
	6.208833909241613e+01
	6.204955811859203e+01
	3.878097382409578e-02
	-1.551238952963831e+01
	3.878097382409607e-02
	3.878097382409578e-11
	-1.551238952963831e-01
	6.204955811859203e+01
	-6.204955811855325e+01
	3.878097382409578e-02
	1.551238952963831e-01
	-3.878097382409607e-02
38		1.040562499838416e-03
	6.499080010088446e+01
	6.495020622199573e+01
	4.059387888872196e-02
	-1.623755155548879e+01
	4.059387888872834e-02
	4.059387888872197e-11
	-1.623755155548879e-01
	6.495020622199573e+01
	-6.495020622195514e+01
	4.059387888872196e-02
	1.623755155548879e-01
	-4.059387888872834e-02
39		1.089390624838416e-03
	6.787123986007060e+01
	6.782884683080138e+01
	4.239302926922436e-02
	-1.695721170768974e+01
	4.239302926922051e-02
	4.239302926922437e-11
	-1.695721170768975e-01
	6.782884683080138e+01
	-6.782884683075898e+01
	4.239302926922436e-02
	1.695721170768975e-01
	-4.239302926922051e-02
40		1.138218749838416e-03
	7.072868237211210e+01
	7.068450455676415e+01
	4.417781534794998e-02
	-1.767112613917999e+01
	4.417781534795040e-02
	4.417781534794998e-11
	-1.767112613917999e-01
	7.068450455676415e+01
	-7.068450455671997e+01
	4.417781534794998e-02
	1.767112613917999e-01
	-4.417781534795040e-02
41		1.187046874838416e-03
	7.356215943145108e+01
	7.351621179907669e+01
	4.594763237439421e-02
	-1.837905294975769e+01
	4.594763237439281e-02
	4.594763237439421e-11
	-1.837905294975768e-01
	7.351621179907669e+01
	-7.351621179903074e+01
	4.594763237439421e-02
	1.837905294975768e-01
	-4.594763237439281e-02
42		1.235874999838416e-03
	7.637071095289758e+01
	7.632300907222746e+01
	4.770188067011236e-02
	-1.908075226804494e+01
	4.770188067011816e-02
	4.770188067011236e-11
	-1.908075226804494e-01
	7.632300907222746e+01
	-7.632300907217977e+01
	4.770188067011236e-02
	1.908075226804494e-01
	-4.770188067011816e-02
43		1.284703124838416e-03
	7.915338529694145e+01
	7.910394533110954e+01
	4.943996583191256e-02
	-1.977598633276503e+01
	4.943996583190824e-02
	4.943996583191256e-11
	-1.977598633276503e-01
	7.910394533110954e+01
	-7.910394533106010e+01
	4.943996583191256e-02
	1.977598633276502e-01
	-4.943996583190824e-02
44		1.333531249838416e-03
	8.190923959220231e+01
	8.185807829326905e+01
	5.116129893326118e-02
	-2.046451957330447e+01
	5.116129893326615e-02
	5.116129893326118e-11
	-2.046451957330447e-01
	8.185807829326905e+01
	-8.185807829321789e+01
	5.116129893326118e-02
	2.046451957330447e-01
	-5.116129893326615e-02
45		1.382359374838416e-03
	8.463734005490879e+01
	8.458447475818495e+01
	5.286529672383256e-02
	-2.114611868953302e+01
	5.286529672383722e-02
	5.286529672383256e-11
	-2.114611868953302e-01
	8.458447475818495e+01
	-8.458447475813209e+01
	5.286529672383256e-02
	2.114611868953302e-01
	-5.286529672383722e-02
46		1.431187499838416e-03
	8.733676230529851e+01
	8.728221092347137e+01
	5.455138182713552e-02
	-2.182055273085421e+01
	5.455138182713881e-02
	5.455138182713552e-11
	-2.182055273085421e-01
	8.728221092347137e+01
	-8.728221092341683e+01
	5.455138182713552e-02
	2.182055273085421e-01
	-5.455138182713881e-02
47		1.480015624838416e-03
	9.000659168083151e+01
	8.995037269789536e+01
	5.621898293614946e-02
	-2.248759317445979e+01
	5.621898293614436e-02
	5.621898293614946e-11
	-2.248759317445979e-01
	8.995037269789536e+01
	-8.995037269783914e+01
	5.621898293614946e-02
	2.248759317445979e-01
	-5.621898293614436e-02
48		1.528843749838416e-03
	9.264592354611125e+01
	9.258805601110434e+01
	5.786753500690405e-02
	-2.314701400276162e+01
	5.786753500690622e-02
	5.786753500690406e-11
	-2.314701400276162e-01
	9.258805601110434e+01
	-9.258805601104648e+01
	5.786753500690405e-02
	2.314701400276162e-01
	-5.786753500690622e-02
49		1.577671874838416e-03
	9.525386359940809e+01
	9.519436711995816e+01
	5.949647944993666e-02
	-2.379859177997466e+01
	5.949647944993330e-02
	5.949647944993667e-11
	-2.379859177997466e-01
	9.519436711995816e+01
	-9.519436711989866e+01
	5.949647944993666e-02
	2.379859177997466e-01
	-5.949647944993330e-02
50		1.626499999838416e-03
	9.782952817568113e+01
	9.776842291136157e+01
	6.110526431956279e-02
	-2.444210572782512e+01
	6.110526431956487e-02
	6.110526431956280e-11
	-2.444210572782512e-01
	9.776842291136157e+01
	-9.776842291130046e+01
	6.110526431956279e-02
	2.444210572782512e-01
	-6.110526431956487e-02
51		1.675328124838417e-03
	1.003720445459962e+02
	1.003093512014953e+02
	6.269334450089541e-02
	-2.507733780035816e+01
	6.269334450090014e-02
	6.269334450089540e-11
	-2.507733780035816e-01
	1.003093512014953e+02
	-1.003093512014326e+02
	6.269334450089541e-02
	2.507733780035816e-01
	-6.269334450090014e-02
52		1.724156249838417e-03
	1.028805512132383e+02
	1.028162910313438e+02
	6.426018189454970e-02
	-2.570407275781988e+01
	6.426018189455363e-02
	6.426018189454970e-11
	-2.570407275781988e-01
	1.028162910313438e+02
	-1.028162910312795e+02
	6.426018189454970e-02
	2.570407275781988e-01
	-6.426018189455363e-02
53		1.772984374838417e-03
	1.053541982040179e+02
	1.052883929584190e+02
	6.580524559897072e-02
	-2.632209823958829e+01
	6.580524559896617e-02
	6.580524559897073e-11
	-2.632209823958829e-01
	1.052883929584190e+02
	-1.052883929583531e+02
	6.580524559897072e-02
	2.632209823958829e-01
	-6.580524559896617e-02
54		1.821812499838417e-03
	1.077921473566732e+02
	1.077248193445829e+02
	6.732801209032221e-02
	-2.693120483612888e+01
	6.732801209032857e-02
	6.732801209032222e-11
	-2.693120483612889e-01
	1.077248193445829e+02
	-1.077248193445155e+02
	6.732801209032221e-02
	2.693120483612889e-01
	-6.732801209032857e-02
55		1.870640624838417e-03
	1.101935726052694e+02
	1.101247446398695e+02
	6.882796539987542e-02
	-2.753118615995017e+01
	6.882796539987623e-02
	6.882796539987542e-11
	-2.753118615995017e-01
	1.101247446398695e+02
	-1.101247446398007e+02
	6.882796539987542e-02
	2.753118615995017e-01
	-6.882796539987623e-02
56		1.919468749838417e-03
	1.125576602595004e+02
	1.124873556622116e+02
	7.030459728883830e-02
	-2.812183891553532e+01
	7.030459728883898e-02
	7.030459728883830e-11
	-2.812183891553532e-01
	1.124873556622116e+02
	-1.124873556621413e+02
	7.030459728883830e-02
	2.812183891553532e-01
	-7.030459728883898e-02
57		1.968296874838417e-03
	1.148836092803965e+02
	1.148118518729759e+02
	7.175740742056511e-02
	-2.870296296822604e+01
	7.175740742056291e-02
	7.175740742056511e-11
	-2.870296296822604e-01
	1.148118518729759e+02
	-1.148118518729042e+02
	7.175740742056511e-02
	2.870296296822604e-01
	-7.175740742056291e-02
58		2.017124999838416e-03
	1.171706315517453e+02
	1.170974456482153e+02
	7.318590353008879e-02
	-2.927436141203551e+01
	7.318590353008858e-02
	7.318590353008880e-11
	-2.927436141203552e-01
	1.170974456482153e+02
	-1.170974456481421e+02
	7.318590353008879e-02
	2.927436141203552e-01
	-7.318590353008858e-02
59		2.065953124838416e-03
	1.194179521471347e+02
	1.193433625455438e+02
	7.458960159091826e-02
	-2.983584063636730e+01
	7.458960159091532e-02
	7.458960159091827e-11
	-2.983584063636731e-01
	1.193433625455438e+02
	-1.193433625454692e+02
	7.458960159091826e-02
	2.983584063636731e-01
	-7.458960159091532e-02
60		2.114781249838416e-03
	1.216248095925257e+02
	1.215488415665466e+02
	7.596802597904417e-02
	-3.038721039161767e+01
	7.596802597903718e-02
	7.596802597904418e-11
	-3.038721039161767e-01
	1.215488415665466e+02
	-1.215488415664707e+02
	7.596802597904417e-02
	3.038721039161767e-01
	-7.596802597903718e-02
61		2.163609374838416e-03
	1.237904561242677e+02
	1.237131354146336e+02
	7.732070963409766e-02
	-3.092828385363907e+01
	7.732070963409399e-02
	7.732070963409767e-11
	-3.092828385363907e-01
	1.237131354146336e+02
	-1.237131354145563e+02
	7.732070963409766e-02
	3.092828385363907e-01
	-7.732070963409399e-02
62		2.212437499838416e-03
	1.259141579424681e+02
	1.258355107482505e+02
	7.864719421760742e-02
	-3.145887768704297e+01
	7.864719421760924e-02
	7.864719421760743e-11
	-3.145887768704297e-01
	1.258355107482505e+02
	-1.258355107481719e+02
	7.864719421760742e-02
	3.145887768704297e-01
	-7.864719421760924e-02
63		2.261265624838416e-03
	1.279951954596306e+02
	1.279152484293623e+02
	7.994703026830144e-02
	-3.197881210732058e+01
	7.994703026830052e-02
	7.994703026830144e-11
	-3.197881210732058e-01
	1.279152484293623e+02
	-1.279152484292823e+02
	7.994703026830144e-02
	3.197881210732058e-01
	-7.994703026830052e-02
64		2.310093749838415e-03
	1.300328635444770e+02
	1.299516437671226e+02
	8.121977735440085e-02
	-3.248791094176034e+01
	8.121977735439145e-02
	8.121977735440085e-11
	-3.248791094176034e-01
	1.299516437671226e+02
	-1.299516437670414e+02
	8.121977735440085e-02
	3.248791094176034e-01
	-8.121977735439145e-02
65		2.358921874838415e-03
	1.320264717608721e+02
	1.319440067566493e+02
	8.246500422285424e-02
	-3.298600168914169e+01
	8.246500422285408e-02
	8.246500422285424e-11
	-3.298600168914170e-01
	1.319440067566493e+02
	-1.319440067565668e+02
	8.246500422285424e-02
	3.298600168914170e-01
	-8.246500422285408e-02
66		2.407749999838415e-03
	1.339753446017682e+02
	1.338916623128228e+02
	8.368228894546192e-02
	-3.347291557818477e+01
	8.368228894545382e-02
	8.368228894546193e-11
	-3.347291557818477e-01
	1.338916623128228e+02
	-1.338916623127391e+02
	8.368228894546192e-02
	3.347291557818477e-01
	-8.368228894545382e-02
67		2.456578124838415e-03
	1.358788217180916e+02
	1.357939504990298e+02
	8.487121906184056e-02
	-3.394848762473622e+01
	8.487121906185280e-02
	8.487121906184056e-11
	-3.394848762473622e-01
	1.357939504990298e+02
	-1.357939504989449e+02
	8.487121906184056e-02
	3.394848762473622e-01
	-8.487121906185280e-02
68		2.505406249838415e-03
	1.377362581424928e+02
	1.376502267507736e+02
	8.603139171917974e-02
	-3.441255668767189e+01
	8.603139171918883e-02
	8.603139171917974e-11
	-3.441255668767190e-01
	1.376502267507736e+02
	-1.376502267506876e+02
	8.603139171917974e-02
	3.441255668767190e-01
	-8.603139171918883e-02
69		2.554234374838414e-03
	1.395470245078850e+02
	1.394598620940762e+02
	8.716241380874316e-02
	-3.486496552349727e+01
	8.716241380875545e-02
	8.716241380874317e-11
	-3.486496552349727e-01
	1.394598620940762e+02
	-1.394598620939891e+02
	8.716241380874316e-02
	3.486496552349727e-01
	-8.716241380875545e-02
70		2.603062499838414e-03
	1.413105072606965e+02
	1.412222433585974e+02
	8.826390209906823e-02
	-3.530556083962729e+01
	8.826390209907231e-02
	8.826390209906823e-11
	-3.530556083962729e-01
	1.412222433585974e+02
	-1.412222433585092e+02
	8.826390209906823e-02
	3.530556083962729e-01
	-8.826390209907231e-02
71		2.651890624838414e-03
	1.430261088687653e+02
	1.429367733853994e+02
	8.933548336581883e-02
	-3.573419334632753e+01
	8.933548336582930e-02
	8.933548336581884e-11
	-3.573419334632753e-01
	1.429367733853994e+02
	-1.429367733853101e+02
	8.933548336581883e-02
	3.573419334632753e-01
	-8.933548336582930e-02
72		2.700718749838414e-03
	1.446932480238042e+02
	1.446028712292860e+02
	9.037679451824726e-02
	-3.615071780729890e+01
	9.037679451824943e-02
	9.037679451824727e-11
	-3.615071780729890e-01
	1.446028712292860e+02
	-1.446028712291956e+02
	9.037679451824726e-02
	3.615071780729890e-01
	-9.037679451824943e-02
73		2.749546874838414e-03
	1.463113598383699e+02
	1.462199723556477e+02
	9.138748272222266e-02
	-3.655499308888906e+01
	9.138748272221164e-02
	9.138748272222266e-11
	-3.655499308888907e-01
	1.462199723556477e+02
	-1.462199723555563e+02
	9.138748272222266e-02
	3.655499308888907e-01
	-9.138748272221164e-02
74		2.798374999838414e-03
	1.478798960372666e+02
	1.477875288317468e+02
	9.236720551978402e-02
	-3.694688220791360e+01
	9.236720551979261e-02
	9.236720551978402e-11
	-3.694688220791361e-01
	1.477875288317468e+02
	-1.477875288316544e+02
	9.236720551978402e-02
	3.694688220791361e-01
	-9.236720551979261e-02
75		2.847203124838413e-03
	1.493983251433224e+02
	1.493050095123772e+02
	9.331563094517743e-02
	-3.732625237807098e+01
	9.331563094517037e-02
	9.331563094517744e-11
	-3.732625237807098e-01
	1.493050095123772e+02
	-1.493050095122839e+02
	9.331563094517743e-02
	3.732625237807097e-01
	-9.331563094517037e-02
76		2.896031249838413e-03
	1.508661326574727e+02
	1.507719002198353e+02
	9.423243763733818e-02
	-3.769297505493527e+01
	9.423243763734490e-02
	9.423243763733819e-11
	-3.769297505493527e-01
	1.507719002198353e+02
	-1.507719002197411e+02
	9.423243763733818e-02
	3.769297505493527e-01
	-9.423243763734490e-02
77		2.944859374838413e-03
	1.522828212330911e+02
	1.521877039181424e+02
	9.511731494877952e-02
	-3.804692597951181e+01
	9.511731494876585e-02
	9.511731494877953e-11
	-3.804692597951181e-01
	1.521877039181424e+02
	-1.521877039180472e+02
	9.511731494877952e-02
	3.804692597951181e-01
	-9.511731494876585e-02
78		2.993687499838413e-03
	1.536479108445091e+02
	1.535519408814583e+02
	9.596996305085144e-02
	-3.838798522034057e+01
	9.596996305086236e-02
	9.596996305085145e-11
	-3.838798522034058e-01
	1.535519408814583e+02
	-1.535519408813623e+02
	9.596996305085144e-02
	3.838798522034058e-01
	-9.596996305086236e-02
79		3.042515624838413e-03
	1.549609389496656e+02
	1.548641488566302e+02
	9.679009303533341e-02
	-3.871603721413337e+01
	9.679009303533803e-02
	9.679009303533341e-11
	-3.871603721413336e-01
	1.548641488566302e+02
	-1.548641488565335e+02
	9.679009303533341e-02
	3.871603721413336e-01
	-9.679009303533803e-02
80		3.091343749838413e-03
	1.562214606468333e+02
	1.561238832198210e+02
	9.757742701232712e-02
	-3.903097080493085e+01
	9.757742701233951e-02
	9.757742701232713e-11
	-3.903097080493085e-01
	1.561238832198210e+02
	-1.561238832197234e+02
	9.757742701232712e-02
	3.903097080493085e-01
	-9.757742701233951e-02
81		3.140171874838412e-03
	1.574290488253678e+02
	1.573307171271634e+02
	9.833169820441565e-02
	-3.933267928176626e+01
	9.833169820441867e-02
	9.833169820441565e-11
	-3.933267928176626e-01
	1.573307171271634e+02
	-1.573307171270650e+02
	9.833169820441565e-02
	3.933267928176626e-01
	-9.833169820441867e-02
82		3.188999999838412e-03
	1.585832943104278e+02
	1.584842416593907e+02
	9.905265103705729e-02
	-3.962106041482292e+01
	9.905265103705574e-02
	9.905265103705730e-11
	-3.962106041482292e-01
	1.584842416593907e+02
	-1.584842416592917e+02
	9.905265103705729e-02
	3.962106041482292e-01
	-9.905265103705574e-02
83		3.237828124838412e-03
	1.596838060016188e+02
	1.595840659603937e+02
	9.974004122518371e-02
	-3.989601649007349e+01
	9.974004122517499e-02
	9.974004122518371e-11
	-3.989601649007349e-01
	1.595840659603937e+02
	-1.595840659602939e+02
	9.974004122518371e-02
	3.989601649007348e-01
	-9.974004122517499e-02
84		3.286656249838412e-03
	1.607302110055122e+02
	1.606298173696562e+02
	1.003936358559724e-01
	-4.015745434238895e+01
	1.003936358559656e-01
	1.003936358559724e-10
	-4.015745434238895e-01
	1.606298173696562e+02
	-1.606298173695558e+02
	1.003936358559724e-01
	4.015745434238895e-01
	-1.003936358559656e-01
85		3.335484374838412e-03
	1.617221547619945e+02
	1.616211415485268e+02
	1.010132134677661e-01
	-4.040528538710645e+01
	1.010132134677519e-01
	1.010132134677661e-10
	-4.040528538710645e-01
	1.616211415485268e+02
	-1.616211415484258e+02
	1.010132134677661e-01
	4.040528538710644e-01
	-1.010132134677519e-01
86		3.384312499838412e-03
	1.626593011644062e+02
	1.625577026002811e+02
	1.015985641251122e-01
	-4.063942565004488e+01
	1.015985641251120e-01
	1.015985641251122e-10
	-4.063942565004488e-01
	1.625577026002811e+02
	-1.625577026001795e+02
	1.015985641251122e-01
	4.063942565004487e-01
	-1.015985641251120e-01
87		3.433140624838411e-03
	1.635413326734261e+02
	1.634391831839362e+02
	1.021494894898963e-01
	-4.085979579595852e+01
	1.021494894899035e-01
	1.021494894898963e-10
	-4.085979579595852e-01
	1.634391831839362e+02
	-1.634391831838341e+02
	1.021494894898963e-01
	4.085979579595852e-01
	-1.021494894899035e-01
88		3.481968749838411e-03
	1.643679504246657e+02
	1.642652846217771e+02
	1.026658028885465e-01
	-4.106632115541861e+01
	1.026658028885379e-01
	1.026658028885465e-10
	-4.106632115541862e-01
	1.642652846217771e+02
	-1.642652846216745e+02
	1.026658028885465e-01
	4.106632115541861e-01
	-1.026658028885379e-01
89		3.530796874838411e-03
	1.651388743299349e+02
	1.650357270005597e+02
	1.031473293752853e-01
	-4.125893175011412e+01
	1.031473293752754e-01
	1.031473293752853e-10
	-4.125893175011413e-01
	1.650357270005597e+02
	-1.650357270004565e+02
	1.031473293752853e-01
	4.125893175011413e-01
	-1.031473293752754e-01
90		3.579624999838411e-03
	1.658538431721468e+02
	1.657502492663554e+02
	1.035939057914074e-01
	-4.143756231656295e+01
	1.035939057913993e-01
	1.035939057914074e-10
	-4.143756231656295e-01
	1.657502492663554e+02
	-1.657502492662518e+02
	1.035939057914074e-01
	4.143756231656295e-01
	-1.035939057913993e-01
91		3.628453124838411e-03
	1.665126146938266e+02
	1.664086093130061e+02
	1.040053808205638e-01
	-4.160215232822551e+01
	1.040053808205528e-01
	1.040053808205638e-10
	-4.160215232822552e-01
	1.664086093130061e+02
	-1.664086093129021e+02
	1.040053808205638e-01
	4.160215232822551e-01
	-1.040053808205528e-01
92		3.677281249838411e-03
	1.671149656791981e+02
	1.670105840641581e+02
	1.043816150400335e-01
	-4.175264601601341e+01
	1.043816150400403e-01
	1.043816150400336e-10
	-4.175264601601342e-01
	1.670105840641581e+02
	-1.670105840640537e+02
	1.043816150400335e-01
	4.175264601601342e-01
	-1.043816150400403e-01
93		3.726109374838410e-03
	1.676606920298168e+02
	1.675559695488488e+02
	1.047224809679650e-01
	-4.188899238718602e+01
	1.047224809679790e-01
	1.047224809679651e-10
	-4.188899238718602e-01
	1.675559695488488e+02
	-1.675559695487441e+02
	1.047224809679650e-01
	4.188899238718602e-01
	-1.047224809679790e-01
94		3.774937499838410e-03
	1.681496088337261e+02
	1.680445809706195e+02
	1.050278631065715e-01
	-4.201114524262861e+01
	1.050278631065851e-01
	1.050278631065715e-10
	-4.201114524262862e-01
	1.680445809706195e+02
	-1.680445809705145e+02
	1.050278631065715e-01
	4.201114524262862e-01
	-1.050278631065851e-01
95		3.823765624838410e-03
	1.685815504281122e+02
	1.684762527701309e+02
	1.052976579812660e-01
	-4.211906319250640e+01
	1.052976579812537e-01
	1.052976579812660e-10
	-4.211906319250640e-01
	1.684762527701309e+02
	-1.684762527700256e+02
	1.052976579812660e-01
	4.211906319250640e-01
	-1.052976579812537e-01
96		3.872593749838410e-03